 Gaussian 16, Revision C.01,

 ----------------------------------------------------------------------
 # B3LYP/6-31G(d,p) symmetry=loose empiricaldispersion=GD3BJ int=(grid=
 ultrafine) opt=calcfc freq=noraman
 ----------------------------------------------------------------------

 ----------
 pyrmd1.xyz
 ----------
 Symbolic Z-matrix:
 Charge =  0 Multiplicity = 1

 SCF Done:  E(RB3LYP) =  -626.270071303     A.U. after   15 cycles
 SCF Done:  E(RB3LYP) =  -626.275387994     A.U. after   13 cycles
 SCF Done:  E(RB3LYP) =  -626.273601407     A.U. after   14 cycles
 SCF Done:  E(RB3LYP) =  -626.276057636     A.U. after   11 cycles
 SCF Done:  E(RB3LYP) =  -626.276118770     A.U. after   10 cycles
 SCF Done:  E(RB3LYP) =  -626.276127927     A.U. after    9 cycles
 SCF Done:  E(RB3LYP) =  -626.276125797     A.U. after    8 cycles
 SCF Done:  E(RB3LYP) =  -626.276132061     A.U. after   10 cycles
 SCF Done:  E(RB3LYP) =  -626.276133153     A.U. after    9 cycles
 SCF Done:  E(RB3LYP) =  -626.276134225     A.U. after    8 cycles
 SCF Done:  E(RB3LYP) =  -626.276134540     A.U. after    8 cycles
 SCF Done:  E(RB3LYP) =  -626.276134579     A.U. after    7 cycles
 Optimization completed.
    -- Stationary point found.
 Normal termination of Gaussian 16 at Fri Aug 16 13:56:34 2024.

 ----------------------------------------------------------------------
 #N Geom=AllCheck Guess=TCheck SCRF=Check GenChk RB3LYP/6-31G(d,p) Freq
 ----------------------------------------------------------------------

 Structure from the checkpoint file:  "pyrmd1_conf-1.chk"
 ----------
 pyrmd1.xyz
 ----------
 Charge =  0 Multiplicity = 1

 SCF Done:  E(RB3LYP) =  -626.276134579     A.U. after    1 cycles

                      1                      2                      3
                      A                      A                      A
 Frequencies --     32.0539                66.0637                71.8440
 Red. masses --      3.2450                 5.9339                 3.0113
 Frc consts  --      0.0020                 0.0153                 0.0092
 IR Inten    --      0.5894                 0.5571                 0.2655

                      4                      5                      6
                      A                      A                      A
 Frequencies --    106.0685               120.0218               147.8328
 Red. masses --      3.8712                 2.8041                 1.1732
 Frc consts  --      0.0257                 0.0238                 0.0151
 IR Inten    --      1.0328                24.0663               227.2694

                      7                      8                      9
                      A                      A                      A
 Frequencies --    165.5358               211.1068               255.2231
 Red. masses --      1.0959                 3.4509                 1.4400
 Frc consts  --      0.0177                 0.0906                 0.0553
 IR Inten    --      7.2392                 0.0949                 4.4099

                     10                     11                     12
                      A                      A                      A
 Frequencies --    256.7155               292.8252               293.3725
 Red. masses --      4.1610                 3.6536                 3.6108
 Frc consts  --      0.1616                 0.1846                 0.1831
 IR Inten    --      2.9887                 8.1745                10.1428

                     13                     14                     15
                      A                      A                      A
 Frequencies --    349.4809               384.5600               429.9107
 Red. masses --      3.4311                 6.0137                 3.3944
 Frc consts  --      0.2469                 0.5240                 0.3696
 IR Inten    --     10.1122                12.6699                 0.4552

                     16                     17                     18
                      A                      A                      A
 Frequencies --    453.1386               531.6966               568.9060
 Red. masses --      3.3270                 3.1688                 1.0861
 Frc consts  --      0.4025                 0.5278                 0.2071
 IR Inten    --      0.1634                14.6880                 0.1558

                     19                     20                     21
                      A                      A                      A
 Frequencies --    583.5485               629.6340               668.9044
 Red. masses --      5.8298                 3.6764                 7.8885
 Frc consts  --      1.1696                 0.8587                 2.0796
 IR Inten    --      0.5136                 2.6560                 7.1131

                     22                     23                     24
                      A                      A                      A
 Frequencies --    759.4160               778.8981               813.9813
 Red. masses --      8.5808                 5.4901                 1.2806
 Frc consts  --      2.9157                 1.9624                 0.4999
 IR Inten    --      3.7298                 2.7877                 6.6223

                     25                     26                     27
                      A                      A                      A
 Frequencies --    817.4299               856.0643               898.5734
 Red. masses --      4.4005                 6.9418                 2.4608
 Frc consts  --      1.7324                 2.9973                 1.1707
 IR Inten    --     20.7716                 3.0374                 1.1059

                     28                     29                     30
                      A                      A                      A
 Frequencies --    974.8317               997.0014              1016.8354
 Red. masses --      3.2646                 1.4526                 1.6122
 Frc consts  --      1.8278                 0.8507                 0.9821
 IR Inten    --      0.7845                 1.7117                 9.4929

                     31                     32                     33
                      A                      A                      A
 Frequencies --   1047.2056              1060.2708              1096.6217
 Red. masses --      3.1195                 1.6274                 2.1702
 Frc consts  --      2.0156                 1.0779                 1.5377
 IR Inten    --      9.0284                 4.5179                26.8425

                     34                     35                     36
                      A                      A                      A
 Frequencies --   1138.8351              1142.4227              1186.4642
 Red. masses --      6.0868                 2.3242                 1.5458
 Frc consts  --      4.6512                 1.7872                 1.2821
 IR Inten    --    261.2992                14.0764                 4.0655

                     37                     38                     39
                      A                      A                      A
 Frequencies --   1262.1220              1294.5466              1296.9571
 Red. masses --      3.1882                 4.4299                 1.1001
 Frc consts  --      2.9922                 4.3740                 1.0903
 IR Inten    --    169.7234               283.2152                 0.5937

                     40                     41                     42
                      A                      A                      A
 Frequencies --   1323.9046              1386.7579              1405.6692
 Red. masses --      3.2036                 2.4031                 1.4105
 Frc consts  --      3.3083                 2.7228                 1.6420
 IR Inten    --    339.6828                 8.5114                25.2624

                     43                     44                     45
                      A                      A                      A
 Frequencies --   1417.1079              1439.2244              1446.4956
 Red. masses --      1.2993                 1.4287                 1.6125
 Frc consts  --      1.5373                 1.7437                 1.9878
 IR Inten    --     16.7883                14.2292                 7.2583

                     46                     47                     48
                      A                      A                      A
 Frequencies --   1486.3881              1492.3574              1500.8970
 Red. masses --      1.0453                 1.9129                 1.0396
 Frc consts  --      1.3606                 2.5100                 1.3798
 IR Inten    --      6.4765                40.1937                 5.1978

                     49                     50                     51
                      A                      A                      A
 Frequencies --   1507.7192              1512.6979              1534.0642
 Red. masses --      2.2505                 1.0487                 1.0923
 Frc consts  --      3.0142                 1.4138                 1.5146
 IR Inten    --     86.6760                 3.1010                 3.0891

                     52                     53                     54
                      A                      A                      A
 Frequencies --   1579.9492              1640.1420              1660.3009
 Red. masses --      7.2253                 2.6657                 3.2038
 Frc consts  --     10.6265                 4.2250                 5.2034
 IR Inten    --    183.4974                10.1708               989.8459

                     55                     56                     57
                      A                      A                      A
 Frequencies --   1787.1660              3056.2576              3065.1706
 Red. masses --     12.0668                 1.0354                 1.0581
 Frc consts  --     22.7077                 5.6980                 5.8573
 IR Inten    --    252.0024                17.1161                20.2215

                     58                     59                     60
                      A                      A                      A
 Frequencies --   3070.0646              3104.7441              3131.8113
 Red. masses --      1.0352                 1.1078                 1.1020
 Frc consts  --      5.7485                 6.2919                 6.3682
 IR Inten    --      4.2034                 8.5297                25.8155

                     61                     62                     63
                      A                      A                      A
 Frequencies --   3133.4636              3138.6426              3168.3265
 Red. masses --      1.0987                 1.1048                 1.1061
 Frc consts  --      6.3559                 6.4125                 6.5419
 IR Inten    --      4.0057                36.7071                14.4682

                     64                     65                     66
                      A                      A                      A
 Frequencies --   3202.3260              3633.9836              3778.5836
 Red. masses --      1.0915                 1.0442                 1.1065
 Frc consts  --      6.5947                 8.1243                 9.3080
 IR Inten    --      6.9881               138.8603                58.7601

 - Thermochemistry -
 -------------------
 Temperature   298.150 Kelvin.  Pressure   1.00000 Atm.
 Atom     1 has atomic number  7 and mass  14.00307

 Molecular mass:   181.08513 amu.
 Principal axes and moments of inertia in atomic units:
                                 1                 2                 3
     Eigenvalues --         1102.628774       3979.177511       5048.265520
           X                   0.999787          0.020646         -0.000514
           Y                  -0.020646          0.999787          0.000522
           Z                   0.000525         -0.000511          1.000000
 This molecule is an asymmetric top.
 Rotational symmetry number  1.
 Warning -- assumption of classical behavior for rotation
           may cause significant error
 Rotational temperatures (Kelvin)      0.07855     0.02177     0.01716
 Rotational constants (GHZ):           1.63676     0.45355     0.35750
 Zero-point vibrational energy     506386.0 (Joules/Mol)
                                  121.02917 (Kcal/Mol)
 Warning -- explicit consideration of  19 degrees of freedom as
           vibrations may cause significant error
 Vibrational temperatures:     46.12    95.05   103.37   152.61   172.68
          (Kelvin)            212.70   238.17   303.74   367.21   369.36
                              421.31   422.10   502.82   553.30   618.55
                              651.97   764.99   818.53   839.60   905.90
                              962.40  1092.63  1120.66  1171.14  1176.10
                             1231.69  1292.85  1402.57  1434.46  1463.00
                             1506.70  1525.49  1577.79  1638.53  1643.69
                             1707.06  1815.91  1862.56  1866.03  1904.80
                             1995.24  2022.44  2038.90  2070.72  2081.18
                             2138.58  2147.17  2159.46  2169.27  2176.43
                             2207.18  2273.19  2359.80  2388.80  2571.33
                             4397.27  4410.10  4417.14  4467.03  4505.98
                             4508.36  4515.81  4558.52  4607.43  5228.49
                             5436.54

 Zero-point correction=                           0.192872 (Hartree/Particle)
 Thermal correction to Energy=                    0.206078
 Thermal correction to Enthalpy=                  0.207022
 Thermal correction to Gibbs Free Energy=         0.152273
 Sum of electronic and zero-point Energies=           -626.083262
 Sum of electronic and thermal Energies=              -626.070057
 Sum of electronic and thermal Enthalpies=            -626.069113
 Sum of electronic and thermal Free Energies=         -626.123862

                     E (Thermal)             CV                S
                      KCal/Mol        Cal/Mol-Kelvin    Cal/Mol-Kelvin
 Total                  129.316             47.512            115.229
 Electronic               0.000              0.000              0.000
 Translational            0.889              2.981             41.488
 Rotational               0.889              2.981             31.472
 Vibrational            127.538             41.550             42.269
 Vibration     1          0.594              1.983              5.698
 Vibration     2          0.597              1.970              4.267
 Vibration     3          0.598              1.967              4.102
 Vibration     4          0.605              1.944              3.340
 Vibration     5          0.609              1.933              3.100
 Vibration     6          0.617              1.905              2.700
 Vibration     7          0.624              1.885              2.486
 Vibration     8          0.643              1.824              2.034
 Vibration     9          0.666              1.754              1.694
 Vibration    10          0.666              1.751              1.684
 Vibration    11          0.688              1.687              1.458
 Vibration    12          0.688              1.686              1.454
 Vibration    13          0.727              1.576              1.169
 Vibration    14          0.753              1.503              1.021
 Vibration    15          0.791              1.405              0.859
 Vibration    16          0.812              1.354              0.786
 Vibration    17          0.887              1.180              0.583
 Vibration    18          0.925              1.099              0.506
 Vibration    19          0.940              1.067              0.479

 Optimization completed.
    -- Stationary point found.
 Normal termination of Gaussian 16 at Fri Aug 16 13:58:14 2024.

 ----------------------------------------------------------------------
 # M062X/def2tzvp int=(grid=ultrafine) pop=nbo7 polar prop=efg volume g
 uess=read geom=check
 ----------------------------------------------------------------------

 ----------
 pyrmd1.xyz
 ----------
 Structure from the checkpoint file:  "pyrmd1_conf-1.chk"
 Charge =  0 Multiplicity = 1

 SCF Done:  E(RM062X) =  -626.203713176     A.U. after   12 cycles

  Exact polarizability:     173.138      -9.621     129.232       0.129      -0.008      74.809
 Approx polarizability:     184.453     -15.167     165.176       0.343      -0.058     101.640

 Summary of Natural Population Analysis:

                                     Natural Population
             Natural    ---------------------------------------------
  Atom No    Charge        Core      Valence    Rydberg      Total
 --------------------------------------------------------------------
    N  1   -0.77430      2.00000     5.75412    0.02018     7.77430
    C  2    0.56700      1.99999     3.40654    0.02648     5.43300
    N  3   -0.51808      1.99999     5.48533    0.03276     7.51808
    C  4    0.33698      1.99999     3.64305    0.01999     5.66302
    C  5   -0.65102      1.99999     4.64041    0.01062     6.65102
    C  6   -0.32321      1.99999     4.30557    0.01764     6.32321
    C  7    0.78466      1.99999     3.18103    0.03432     5.21534
    O  8   -0.51542      2.00000     6.49378    0.02165     8.51542
    C  9   -0.07203      1.99999     4.05621    0.01583     6.07203
    C 10   -0.62204      1.99999     4.61222    0.00983     6.62204
    O 11   -0.60924      2.00000     6.58413    0.02512     8.60924
    C 12    0.14436      1.99999     3.83364    0.02202     5.85564
    N 13   -0.50758      1.99999     5.47497    0.03262     7.50758
    H 14    0.40799      0.00000     0.59055    0.00146     0.59201
    H 15    0.40791      0.00000     0.59056    0.00153     0.59209
    H 16    0.24348      0.00000     0.75540    0.00112     0.75652
    H 17    0.22641      0.00000     0.77213    0.00146     0.77359
    H 18    0.24321      0.00000     0.75567    0.00112     0.75679
    H 19    0.18719      0.00000     0.81084    0.00196     0.81281
    H 20    0.18729      0.00000     0.81075    0.00196     0.81271
    H 21    0.21250      0.00000     0.78639    0.00111     0.78750
    H 22    0.21260      0.00000     0.78629    0.00111     0.78740
    H 23    0.21620      0.00000     0.78302    0.00078     0.78380
    H 24    0.21517      0.00000     0.78321    0.00162     0.78483
 ====================================================================
 * Total *  0.00000     25.99990    69.69582    0.30428    96.00000

 Normal termination of Gaussian 16 at Fri Aug 16 14:04:09 2024.
 Gaussian 16:  ES64L-G16RevC.01  3-Jul-2019

 --------------------------------------------------------------------
 # M062X/def2tzvp int=(grid=ultrafine) nmr=giao guess=read geom=check
 --------------------------------------------------------------------

 ----------
 pyrmd1.xyz
 ----------
 Structure from the checkpoint file:  "pyrmd1_conf-1.chk"
 Charge =  0 Multiplicity = 1

                         Standard orientation:
 ---------------------------------------------------------------------
 Center     Atomic      Atomic             Coordinates (Angstroms)
 Number     Number       Type             X           Y           Z
 ---------------------------------------------------------------------
      1          7           0        3.983504   -1.194492    0.023185
      2          6           0        2.705183   -0.751292    0.002565
      3          7           0        2.530639    0.585542    0.000240
      4          6           0        1.277311    1.043431   -0.000146
      5          6           0        1.127073    2.537232   -0.002843
      6          6           0        0.180186    0.146025    0.000657
      7          6           0       -1.221696    0.604813    0.000647
      8          8           0       -2.092016   -0.436152   -0.000083
      9          6           0       -3.490003   -0.080505    0.000449
     10          6           0       -4.282480   -1.372001    0.000216
     11          8           0       -1.592654    1.765465    0.001540
     12          6           0        0.497664   -1.220713   -0.003192
     13          7           0        1.737375   -1.693862   -0.003035
     14          1           0        4.157394   -2.181163   -0.065995
     15          1           0        4.731092   -0.527207   -0.063152
     16          1           0        0.559153    2.872019    0.868872
     17          1           0        2.118618    2.990695   -0.005967
     18          1           0        0.554241    2.869173   -0.872384
     19          1           0       -3.700249    0.532938   -0.881032
     20          1           0       -3.699691    0.532270    0.882513
     21          1           0       -4.053746   -1.969237   -0.886872
     22          1           0       -4.053141   -1.969879    0.886707
     23          1           0       -5.354113   -1.151354    0.000650
     24          1           0       -0.302254   -1.955015   -0.007829
 ---------------------------------------------------------------------

 SCF Done:  E(RM062X) =  -626.203713176     A.U. after    1 cycles

      1  N    Isotropic =   159.9779   Anisotropy =   119.9634

      2  C    Isotropic =     1.5103   Anisotropy =   160.3678

      3  N    Isotropic =   -53.2983   Anisotropy =   428.7804

      4  C    Isotropic =   -17.5272   Anisotropy =   246.2343

      5  C    Isotropic =   155.5718   Anisotropy =    36.4092

      6  C    Isotropic =    54.4806   Anisotropy =   165.0743

      7  C    Isotropic =     1.0913   Anisotropy =   105.7433

      8  O    Isotropic =   112.6666   Anisotropy =   190.3672

      9  C    Isotropic =   121.2180   Anisotropy =    60.5729

     10  C    Isotropic =   171.5679   Anisotropy =    22.1114

     11  O    Isotropic =  -147.9619   Anisotropy =   683.2219

     12  C    Isotropic =    -1.9002   Anisotropy =   219.3400

     13  N    Isotropic =   -44.6547   Anisotropy =   469.6313

     14  H    Isotropic =    26.8135   Anisotropy =     9.5174

     15  H    Isotropic =    26.8053   Anisotropy =     9.3616

     16  H    Isotropic =    28.8753   Anisotropy =     5.7200

     17  H    Isotropic =    29.5115   Anisotropy =     7.2723

     18  H    Isotropic =    28.8767   Anisotropy =     5.6893

     19  H    Isotropic =    27.7726   Anisotropy =     5.6485

     20  H    Isotropic =    27.7704   Anisotropy =     5.6528

     21  H    Isotropic =    30.4561   Anisotropy =     8.0571

     22  H    Isotropic =    30.4540   Anisotropy =     8.0574

     23  H    Isotropic =    30.7169   Anisotropy =    10.0253

     24  H    Isotropic =    22.1012   Anisotropy =     9.8748

 The electronic state is 1-A.
 Alpha  occ. eigenvalues --  -19.66923 -19.61331 -14.77353 -14.75266 -14.75076
 Alpha  occ. eigenvalues --  -10.67662 -10.65631 -10.61092 -10.59842 -10.59640
 Alpha  occ. eigenvalues --  -10.55605 -10.53650 -10.52848  -1.22930  -1.13563
 Alpha  occ. eigenvalues --   -1.12190  -1.02212  -1.00329  -0.90421  -0.86827
 Alpha  occ. eigenvalues --   -0.82368  -0.76189  -0.73188  -0.71132  -0.66225
 Alpha  occ. eigenvalues --   -0.63471  -0.60999  -0.60101  -0.57719  -0.56665
 Alpha  occ. eigenvalues --   -0.54983  -0.53294  -0.50095  -0.49827  -0.48372
 Alpha  occ. eigenvalues --   -0.47508  -0.46531  -0.46222  -0.44846  -0.43122
 Alpha  occ. eigenvalues --   -0.42570  -0.40034  -0.39825  -0.37468  -0.37063
 Alpha  occ. eigenvalues --   -0.35320  -0.32309  -0.29266
 Alpha virt. eigenvalues --   -0.01175  -0.00320   0.06496   0.06857   0.08958
 Alpha virt. eigenvalues --    0.09063   0.10636   0.11247   0.12460   0.13203
 Alpha virt. eigenvalues --    0.13416   0.14017   0.14950   0.15639   0.16038

 Mulliken charges:
               1
     1  N   -0.501431
     2  C    0.410655
     3  N   -0.297434
     4  C    0.165399
     5  C   -0.456542
     6  C   -0.067896
     7  C    0.366662
     8  O   -0.286144
     9  C   -0.099723
    10  C   -0.413436
    11  O   -0.374798
    12  C   -0.063610
    13  N   -0.287081
    14  H    0.266325
    15  H    0.265944
    16  H    0.167768
    17  H    0.147632
    18  H    0.167535
    19  H    0.142871
    20  H    0.142993
    21  H    0.145344
    22  H    0.145544
    23  H    0.141572
    24  H    0.171851
 Sum of Mulliken charges =  -0.00000

 Dipole moment (field-independent basis, Debye):
    X=              0.5416    Y=             -1.5196    Z=             -0.2555  Tot=              1.6334
 Quadrupole moment (field-independent basis, Debye-Ang):
   XX=            -56.8800   YY=            -79.5325   ZZ=            -77.0752
   XY=              0.4392   XZ=             -1.2338   YZ=              0.3823

 Normal termination of Gaussian 16 at Fri Aug 16 14:06:34 2024.
