 Gaussian 16, Revision C.01,

 ----------------------------------------------------------------------
 # B3LYP/6-31G(d,p) symmetry=loose empiricaldispersion=GD3BJ int=(grid=
 ultrafine) opt freq=noraman
 ----------------------------------------------------------------------

 -------
 an1.xyz
 -------
 Symbolic Z-matrix:
 Charge =  0 Multiplicity = 1

 SCF Done:  E(RB3LYP) =  -287.636598475     A.U. after   13 cycles
 SCF Done:  E(RB3LYP) =  -287.638309969     A.U. after   11 cycles
 SCF Done:  E(RB3LYP) =  -287.638793039     A.U. after   10 cycles
 SCF Done:  E(RB3LYP) =  -287.639014101     A.U. after   11 cycles
 SCF Done:  E(RB3LYP) =  -287.639207274     A.U. after   10 cycles
 SCF Done:  E(RB3LYP) =  -287.639313655     A.U. after   10 cycles
 SCF Done:  E(RB3LYP) =  -287.639318775     A.U. after    8 cycles
 SCF Done:  E(RB3LYP) =  -287.639319015     A.U. after    7 cycles
 Optimization completed.
    -- Stationary point found.
 Normal termination of Gaussian 16 at Thu Jun  8 13:07:00 2023.

 ----------------------------------------------------------------------
 #N Geom=AllCheck Guess=TCheck SCRF=Check GenChk RB3LYP/6-31G(d,p) Freq
 ----------------------------------------------------------------------

 Structure from the checkpoint file:  "an1_conf-1.chk"
 -------
 an1.xyz
 -------
 Charge =  0 Multiplicity = 1

 SCF Done:  E(RB3LYP) =  -287.639319015     A.U. after    1 cycles

                      1                      2                      3
                     A'                     A"                     A"
 Frequencies --    223.8442               294.5752               384.5708
 Red. masses --      3.6430                 1.0373                 2.9543
 Frc consts  --      0.1075                 0.0530                 0.2574
 IR Inten    --      5.0046                20.7764                 0.1918

                      4                      5                      6
                     A"                     A'                     A'
 Frequencies --    417.8365               506.6162               537.5282
 Red. masses --      3.0805                 2.3204                 6.3838
 Frc consts  --      0.3169                 0.3509                 1.0868
 IR Inten    --      0.3080                60.5728                 4.9884

                      7                      8                      9
                     A'                     A"                     A'
 Frequencies --    607.9749               636.5944               704.5795
 Red. masses --      1.4186                 6.3352                 2.1094
 Frc consts  --      0.3089                 1.5126                 0.6170
 IR Inten    --    287.0748                 0.2644                 9.2016

                     10                     11                     12
                     A'                     A"                     A'
 Frequencies --    762.0080               827.2704               837.3442
 Red. masses --      1.7227                 1.2568                 4.2539
 Frc consts  --      0.5894                 0.5068                 1.7573
 IR Inten    --     67.7406                 0.1118                 2.4341

                     13                     14                     15
                     A'                     A"                     A'
 Frequencies --    878.7428               952.7184               977.9204
 Red. masses --      1.4954                 1.3247                 1.2231
 Frc consts  --      0.6803                 0.7084                 0.6891
 IR Inten    --      9.3617                 0.0000                 0.1635

                     16                     17                     18
                     A'                     A'                     A"
 Frequencies --   1013.0343              1056.7169              1074.8122
 Red. masses --      5.7975                 2.1249                 1.5674
 Frc consts  --      3.5054                 1.3980                 1.0668
 IR Inten    --      0.6905                 2.0182                 2.2436

                     19                     20                     21
                     A"                     A"                     A'
 Frequencies --   1144.0762              1185.2919              1206.5222
 Red. masses --      1.2489                 1.0866                 1.1236
 Frc consts  --      0.9632                 0.8995                 0.9637
 IR Inten    --      3.3115                 1.7945                 7.6638

                     22                     23                     24
                     A'                     A"                     A"
 Frequencies --   1318.2914              1369.1006              1370.7272
 Red. masses --      3.0894                 1.7590                 2.6602
 Frc consts  --      3.1634                 1.9426                 2.9449
 IR Inten    --     53.8841                 2.4479                 6.1496

                     25                     26                     27
                     A"                     A'                     A"
 Frequencies --   1514.7207              1547.4520              1645.5156
 Red. masses --      2.3710                 2.4163                 5.7682
 Frc consts  --      3.2051                 3.4091                 9.2022
 IR Inten    --      1.6084                55.7771                 4.6962

                     28                     29                     30
                     A'                     A'                     A'
 Frequencies --   1658.8738              1678.6860              3168.9931
 Red. masses --      1.5764                 2.4268                 1.0859
 Frc consts  --      2.5560                 4.0293                 6.4251
 IR Inten    --      6.3273               145.1280                19.1176

                     31                     32                     33
                     A"                     A'                     A"
 Frequencies --   3170.1165              3185.9945              3191.3500
 Red. masses --      1.0878                 1.0899                 1.0941
 Frc consts  --      6.4409                 6.5184                 6.5655
 IR Inten    --      4.7600                 3.7615                43.0391

                     34                     35                     36
                     A'                     A'                     A"
 Frequencies --   3209.3892              3568.7592              3674.4341
 Red. masses --      1.0976                 1.0477                 1.0982
 Frc consts  --      6.6612                 7.8618                 8.7358
 IR Inten    --     17.0589                11.0811                 9.1395

 - Thermochemistry -
 -------------------
 Temperature   298.150 Kelvin.  Pressure   1.00000 Atm.
 Atom     1 has atomic number  7 and mass  14.00307

 Molecular mass:    93.05785 amu.
 Principal axes and moments of inertia in atomic units:
                           1         2         3
     Eigenvalues --   321.21242 696.215591015.75306
           X           -0.00131   0.00000   1.00000
           Y            1.00000  -0.00000   0.00131
           Z            0.00000   1.00000  -0.00000
 This molecule is an asymmetric top.
 Rotational symmetry number  1.
 Rotational temperatures (Kelvin)      0.26965     0.12441     0.08527
 Rotational constants (GHZ):           5.61853     2.59222     1.77675
 Zero-point vibrational energy     308056.2 (Joules/Mol)
                                   73.62721 (Kcal/Mol)
 Warning -- explicit consideration of   7 degrees of freedom as
           vibrations may cause significant error
 Vibrational temperatures:    322.06   423.83   553.31   601.17   728.91
          (Kelvin)            773.38   874.74   915.92  1013.73  1096.36
                             1190.26  1204.75  1264.31  1370.75  1407.01
                             1457.53  1520.38  1546.42  1646.07  1705.37
                             1735.92  1896.73  1969.83  1972.17  2179.35
                             2226.44  2367.53  2386.75  2415.25  4559.47
                             4561.09  4583.94  4591.64  4617.60  5134.65
                             5286.69

 Zero-point correction=                           0.117332 (Hartree/Particle)
 Thermal correction to Energy=                    0.123120
 Thermal correction to Enthalpy=                  0.124065
 Thermal correction to Gibbs Free Energy=         0.088189
 Sum of electronic and zero-point Energies=           -287.521987
 Sum of electronic and thermal Energies=              -287.516199
 Sum of electronic and thermal Enthalpies=            -287.515254
 Sum of electronic and thermal Free Energies=         -287.551130

                     E (Thermal)             CV                S
                      KCal/Mol        Cal/Mol-Kelvin    Cal/Mol-Kelvin
 Total                   77.259             23.135             75.506
 Electronic               0.000              0.000              0.000
 Translational            0.889              2.981             39.504
 Rotational               0.889              2.981             26.921
 Vibrational             75.482             17.173              9.082
 Vibration     1          0.649              1.805              1.928
 Vibration     2          0.689              1.684              1.448
 Vibration     3          0.754              1.503              1.021
 Vibration     4          0.781              1.431              0.899
 Vibration     5          0.862              1.235              0.642
 Vibration     6          0.893              1.167              0.571
 Vibration     7          0.967              1.015              0.436

 Optimization completed.
    -- Stationary point found.
 Normal termination of Gaussian 16 at Thu Jun  8 13:07:12 2023.

 ----------------------------------------------------------------------
 # M062X/def2tzvp int=(grid=ultrafine) pop=nbo7 polar prop=efg volume g
 uess=read geom=check
 ----------------------------------------------------------------------

 -------
 an1.xyz
 -------
 Structure from the checkpoint file:  "an1_conf-1.chk"
 Charge =  0 Multiplicity = 1

 SCF Done:  E(RM062X) =  -287.584400987     A.U. after   12 cycles

  Exact polarizability:      44.135       0.324      98.668       0.000      -0.000      83.040
 Approx polarizability:      59.016      -0.124     123.920       0.000      -0.000     110.673

 Summary of Natural Population Analysis:

                                     Natural Population
             Natural    ---------------------------------------------
  Atom No    Charge        Core      Valence    Rydberg      Total
 --------------------------------------------------------------------
    N  1   -0.79676      2.00000     5.77326    0.02350     7.79676
    C  2    0.16474      1.99999     3.81906    0.01621     5.83526
    C  3   -0.26873      1.99999     4.25182    0.01692     6.26873
    C  4   -0.18736      1.99999     4.17076    0.01661     6.18736
    C  5   -0.26007      1.99999     4.24265    0.01743     6.26007
    C  6   -0.18736      1.99999     4.17076    0.01661     6.18736
    C  7   -0.26873      1.99999     4.25182    0.01692     6.26873
    H  8    0.37537      0.00000     0.62296    0.00168     0.62463
    H  9    0.37537      0.00000     0.62296    0.00168     0.62463
    H 10    0.20744      0.00000     0.79106    0.00149     0.79256
    H 11    0.21231      0.00000     0.78650    0.00119     0.78769
    H 12    0.21404      0.00000     0.78484    0.00112     0.78596
    H 13    0.21231      0.00000     0.78650    0.00119     0.78769
    H 14    0.20744      0.00000     0.79106    0.00149     0.79256
 ====================================================================
 * Total *  0.00000     13.99995    35.86601    0.13404    50.00000

 Normal termination of Gaussian 16 at Thu Jun  8 13:07:40 2023.
 Gaussian 16:  ES64L-G16RevC.01  3-Jul-2019

 --------------------------------------------------------------------
 # M062X/def2tzvp int=(grid=ultrafine) nmr=giao guess=read geom=check
 --------------------------------------------------------------------

 -------
 an1.xyz
 -------
 Structure from the checkpoint file:  "an1_conf-1.chk"
 Charge =  0 Multiplicity = 1

                         Standard orientation:
 ---------------------------------------------------------------------
 Center     Atomic      Atomic             Coordinates (Angstroms)
 Number     Number       Type             X           Y           Z
 ---------------------------------------------------------------------
      1          7           0       -0.062643    2.334382   -0.000000
      2          6           0       -0.004358    0.938219   -0.000000
      3          6           0       -0.003933    0.221521   -1.207848
      4          6           0       -0.003933   -1.170608   -1.202013
      5          6           0       -0.003459   -1.879971    0.000000
      6          6           0       -0.003933   -1.170608    1.202013
      7          6           0       -0.003933    0.221521    1.207848
      8          1           0        0.300654    2.772412   -0.835445
      9          1           0        0.300654    2.772412    0.835445
     10          1           0       -0.008099    0.763792   -2.149978
     11          1           0       -0.001733   -1.704327   -2.148061
     12          1           0       -0.001835   -2.964874    0.000000
     13          1           0       -0.001733   -1.704327    2.148061
     14          1           0       -0.008099    0.763792    2.149978
 ---------------------------------------------------------------------

 SCF Done:  E(RM062X) =  -287.584400987     A.U. after    1 cycles

      1  N    Isotropic =   188.0959   Anisotropy =    98.6136

      2  C    Isotropic =    15.0145   Anisotropy =   207.6580

      3  C    Isotropic =    52.6624   Anisotropy =   168.5380

      4  C    Isotropic =    34.0423   Anisotropy =   215.3899

      5  C    Isotropic =    47.7301   Anisotropy =   198.8979

      6  C    Isotropic =    34.0423   Anisotropy =   215.3899

      7  C    Isotropic =    52.6624   Anisotropy =   168.5380

      8  H    Isotropic =    28.6656   Anisotropy =    10.6781

      9  H    Isotropic =    28.6656   Anisotropy =    10.6781

     10  H    Isotropic =    24.5820   Anisotropy =     7.0706

     11  H    Isotropic =    23.9540   Anisotropy =     5.8516

     12  H    Isotropic =    24.4732   Anisotropy =     5.0199

     13  H    Isotropic =    23.9540   Anisotropy =     5.8516

     14  H    Isotropic =    24.5820   Anisotropy =     7.0706

 The electronic state is 1-A'.
 Alpha  occ. eigenvalues --  -14.75221 -10.58155 -10.53874 -10.53873 -10.53395
 Alpha  occ. eigenvalues --  -10.53394 -10.52837  -1.02705  -0.93647  -0.83746
 Alpha  occ. eigenvalues --   -0.81650  -0.69251  -0.67707  -0.59687  -0.57963
 Alpha  occ. eigenvalues --   -0.54724  -0.49672  -0.48992  -0.48112  -0.45642
 Alpha  occ. eigenvalues --   -0.41459  -0.39635  -0.37973  -0.30402  -0.25981
 Alpha virt. eigenvalues --    0.02524   0.04013   0.06434   0.09089   0.09749
 Alpha virt. eigenvalues --    0.12745   0.12778   0.15325   0.16491   0.16651
 Alpha virt. eigenvalues --    0.19542   0.22341   0.24312   0.24955   0.25077

 Mulliken charges:
               1
     1  N   -0.547839
     2  C    0.298523
     3  C   -0.230593
     4  C   -0.142673
     5  C   -0.186058
     6  C   -0.142673
     7  C   -0.230593
     8  H    0.239254
     9  H    0.239254
    10  H    0.143590
    11  H    0.138831
    12  H    0.138556
    13  H    0.138831
    14  H    0.143590
 Sum of Mulliken charges =  -0.00000

 Dipole moment (field-independent basis, Debye):
    X=              1.0216    Y=              1.1888    Z=              0.0000  Tot=              1.5674
 Quadrupole moment (field-independent basis, Debye-Ang):
   XX=            -46.9820   YY=            -35.1298   ZZ=            -36.5130
   XY=              3.3323   XZ=             -0.0000   YZ=              0.0000

 Normal termination of Gaussian 16 at Thu Jun  8 13:07:55 2023.
