 Gaussian 16, Revision C.01,

 ----------------------------------------------------------------------
 # B3LYP/6-31G(d,p) symmetry=loose empiricaldispersion=GD3BJ int=(grid=
 ultrafine) opt freq=noraman
 ----------------------------------------------------------------------

 -------
 an2.xyz
 -------
 Symbolic Z-matrix:
 Charge =  0 Multiplicity = 1

 SCF Done:  E(RB3LYP) =  -326.960615391     A.U. after   13 cycles
 SCF Done:  E(RB3LYP) =  -326.963125911     A.U. after   11 cycles
 SCF Done:  E(RB3LYP) =  -326.963726754     A.U. after   10 cycles
 SCF Done:  E(RB3LYP) =  -326.964095467     A.U. after   11 cycles
 SCF Done:  E(RB3LYP) =  -326.964236403     A.U. after    9 cycles
 SCF Done:  E(RB3LYP) =  -326.964347689     A.U. after    9 cycles
 SCF Done:  E(RB3LYP) =  -326.964351007     A.U. after    8 cycles
 SCF Done:  E(RB3LYP) =  -326.964351583     A.U. after    7 cycles
 Optimization completed.
    -- Stationary point found.
 Normal termination of Gaussian 16 at Thu Feb 16 10:15:23 2023.

 ----------------------------------------------------------------------
 #N Geom=AllCheck Guess=TCheck SCRF=Check GenChk RB3LYP/6-31G(d,p) Freq
 ----------------------------------------------------------------------

 Structure from the checkpoint file:  "an2_conf-1.chk"
 -------
 an2.xyz
 -------
 Charge =  0 Multiplicity = 1

 SCF Done:  E(RB3LYP) =  -326.964351583     A.U. after    1 cycles

                      1                      2                      3
                      A                      A                      A
 Frequencies --     28.6195               142.0825               283.3401
 Red. masses --      1.0338                 3.4381                 1.0366
 Frc consts  --      0.0005                 0.0409                 0.0490
 IR Inten    --      0.1529                 3.4749                21.8604

                      4                      5                      6
                      A                      A                      A
 Frequencies --    300.8507               323.5443               410.1470
 Red. masses --      2.7799                 3.6386                 2.7548
 Frc consts  --      0.1482                 0.2244                 0.2730
 IR Inten    --      0.1791                 2.8664                 0.0522

                      7                      8                      9
                      A                      A                      A
 Frequencies --    419.7237               469.5926               511.6865
 Red. masses --      3.0965                 5.5372                 2.1441
 Frc consts  --      0.3214                 0.7194                 0.3308
 IR Inten    --      0.4018                 1.7681                54.9521

                     10                     11                     12
                      A                      A                      A
 Frequencies --    619.2700               661.7074               715.9251
 Red. masses --      1.4509                 6.7170                 3.2406
 Frc consts  --      0.3278                 1.7328                 0.9786
 IR Inten    --    319.2476                 0.0456                 4.7349

                     13                     14                     15
                      A                      A                      A
 Frequencies --    758.2442               822.5075               824.8226
 Red. masses --      3.5062                 1.6845                 1.2577
 Frc consts  --      1.1877                 0.6714                 0.5041
 IR Inten    --      2.3331                53.6582                 0.0450

                     16                     17                     18
                      A                      A                      A
 Frequencies --    859.5014               937.8794               947.1696
 Red. masses --      5.1015                 1.2458                 1.3187
 Frc consts  --      2.2204                 0.6457                 0.6970
 IR Inten    --      2.3242                 0.9083                 0.0015

                     19                     20                     21
                      A                      A                      A
 Frequencies --   1008.0796              1034.0264              1065.6095
 Red. masses --      1.4277                 2.7450                 1.4927
 Frc consts  --      0.8548                 1.7293                 0.9987
 IR Inten    --      0.2450                 0.1073                 9.6254

                     22                     23                     24
                      A                      A                      A
 Frequencies --   1101.4635              1159.1831              1211.3283
 Red. masses --      1.3608                 1.1924                 1.1132
 Frc consts  --      0.9727                 0.9440                 0.9624
 IR Inten    --      1.9973                 8.8211                 6.7892

                     25                     26                     27
                      A                      A                      A
 Frequencies --   1244.4203              1317.2223              1346.6218
 Red. masses --      2.9711                 3.3838                 1.7427
 Frc consts  --      2.7108                 3.4591                 1.8619
 IR Inten    --      0.9281                64.0442                 3.0259

                     28                     29                     30
                      A                      A                      A
 Frequencies --   1368.7037              1427.8270              1474.2098
 Red. masses --      2.7776                 1.2551                 2.2414
 Frc consts  --      3.0657                 1.5076                 2.8700
 IR Inten    --      6.2506                 0.8483                 0.0790

                     31                     32                     33
                      A                      A                      A
 Frequencies --   1501.8213              1513.5512              1567.6193
 Red. masses --      1.0472                 1.1914                 2.7109
 Frc consts  --      1.3916                 1.6080                 3.9251
 IR Inten    --      4.6908                 6.4446                88.7983

                     34                     35                     36
                      A                      A                      A
 Frequencies --   1638.0619              1662.4083              1686.9151
 Red. masses --      5.8150                 1.2746                 3.9432
 Frc consts  --      9.1931                 2.0754                 6.6112
 IR Inten    --      2.4720                28.1562                90.3350

                     37                     38                     39
                      A                      A                      A
 Frequencies --   3030.6202              3089.6803              3118.6493
 Red. masses --      1.0413                 1.0948                 1.1025
 Frc consts  --      5.6352                 6.1578                 6.3175
 IR Inten    --     47.4971                25.6914                18.2926

                     40                     41                     42
                      A                      A                      A
 Frequencies --   3164.7478              3165.1093              3181.0964
 Red. masses --      1.0863                 1.0867                 1.0944
 Frc consts  --      6.4104                 6.4141                 6.5250
 IR Inten    --     32.6770                 0.0408                49.5767

                     43                     44                     45
                      A                      A                      A
 Frequencies --   3184.6442              3564.3719              3669.2326
 Red. masses --      1.0949                 1.0478                 1.0979
 Frc consts  --      6.5426                 7.8430                 8.7088
 IR Inten    --      0.1563                 9.9411                 8.1876

 - Thermochemistry -
 -------------------
 Temperature   298.150 Kelvin.  Pressure   1.00000 Atm.
 Atom     1 has atomic number  6 and mass  12.00000

 Molecular mass:   107.07350 amu.
 Principal axes and moments of inertia in atomic units:
                                 1                 2                 3
     Eigenvalues --          330.152193       1244.672942       1561.830879
           X                   0.999989          0.000001          0.004755
           Y                  -0.000001          1.000000         -0.000000
           Z                  -0.004755          0.000000          0.999989
 This molecule is an asymmetric top.
 Rotational symmetry number  1.
 Rotational temperatures (Kelvin)      0.26235     0.06959     0.05546
 Rotational constants (GHZ):           5.46639     1.44997     1.15553
 Zero-point vibrational energy     380016.7 (Joules/Mol)
                                   90.82618 (Kcal/Mol)
 Warning -- explicit consideration of  10 degrees of freedom as
           vibrations may cause significant error
 Vibrational temperatures:     41.18   204.43   407.66   432.86   465.51
          (Kelvin)            590.11   603.89   675.64   736.20   890.99
                              952.05  1030.06  1090.94  1183.40  1186.74
                             1236.63  1349.40  1362.77  1450.40  1487.73
                             1533.17  1584.76  1667.81  1742.83  1790.44
                             1895.19  1937.49  1969.26  2054.32  2121.06
                             2160.79  2177.66  2255.45  2356.81  2391.83
                             2427.09  4360.39  4445.36  4487.04  4553.37
                             4553.89  4576.89  4581.99  5128.34  5279.21

 Zero-point correction=                           0.144741 (Hartree/Particle)
 Thermal correction to Energy=                    0.152423
 Thermal correction to Enthalpy=                  0.153368
 Thermal correction to Gibbs Free Energy=         0.112204
 Sum of electronic and zero-point Energies=           -326.819611
 Sum of electronic and thermal Energies=              -326.811928
 Sum of electronic and thermal Enthalpies=            -326.810984
 Sum of electronic and thermal Free Energies=         -326.852147

                     E (Thermal)             CV                S
                      KCal/Mol        Cal/Mol-Kelvin    Cal/Mol-Kelvin
 Total                   95.647             29.169             86.635
 Electronic               0.000              0.000              0.000
 Translational            0.889              2.981             39.922
 Rotational               0.889              2.981             27.953
 Vibrational             93.870             23.208             18.761
 Vibration     1          0.593              1.984              5.923
 Vibration     2          0.616              1.911              2.776
 Vibration     3          0.682              1.705              1.513
 Vibration     4          0.693              1.672              1.412
 Vibration     5          0.708              1.628              1.292
 Vibration     6          0.774              1.448              0.926
 Vibration     7          0.782              1.427              0.893
 Vibration     8          0.827              1.318              0.739
 Vibration     9          0.867              1.224              0.630
 Vibration    10          0.979              0.991              0.418

                           ! Non-Optimized Parameters !
 Normal termination of Gaussian 16 at Thu Feb 16 10:16:01 2023.

 ----------------------------------------------------------------------
 # M062X/def2tzvp int=(grid=ultrafine) pop=nbo7 polar prop=efg volume g
 uess=read geom=check
 ----------------------------------------------------------------------

 -------
 an2.xyz
 -------
 Structure from the checkpoint file:  "an2_conf-1.chk"
 Charge =  0 Multiplicity = 1

 SCF Done:  E(RM062X) =  -326.893704031     A.U. after   12 cycles

  Exact polarizability:     121.874       0.002      91.703      -0.290       0.000      53.792
 Approx polarizability:     141.706       0.003     124.693      -0.673      -0.000      72.316

 Summary of Natural Population Analysis:

                                     Natural Population
             Natural    ---------------------------------------------
  Atom No    Charge        Core      Valence    Rydberg      Total
 --------------------------------------------------------------------
    C  1   -0.62095      1.99999     4.61192    0.00903     6.62095
    C  2   -0.06442      1.99999     4.04883    0.01560     6.06442
    C  3   -0.18682      1.99999     4.17094    0.01589     6.18682
    C  4   -0.25919      1.99999     4.24262    0.01657     6.25919
    C  5    0.15538      1.99999     3.82870    0.01594     5.84462
    N  6   -0.79829      1.99999     5.77466    0.02364     7.79829
    C  7   -0.25921      1.99999     4.24264    0.01657     6.25921
    C  8   -0.18683      1.99999     4.17095    0.01589     6.18683
    H  9    0.21359      0.00000     0.78525    0.00115     0.78641
    H 10    0.21358      0.00000     0.78527    0.00115     0.78642
    H 11    0.21533      0.00000     0.78326    0.00142     0.78467
    H 12    0.20779      0.00000     0.79080    0.00141     0.79221
    H 13    0.20711      0.00000     0.79135    0.00154     0.79289
    H 14    0.37402      0.00000     0.62429    0.00170     0.62598
    H 15    0.37402      0.00000     0.62429    0.00170     0.62598
    H 16    0.20711      0.00000     0.79135    0.00154     0.79289
    H 17    0.20779      0.00000     0.79080    0.00141     0.79221
 ====================================================================
 * Total *  0.00000     15.99994    41.85792    0.14214    58.00000

 1\1\GINC-COMPUTE-0-26\SP\RM062X\def2TZVP\C7H9N1\SHEINS\16-Feb-2023\0\\
 # M062X/def2tzvp int=(grid=ultrafine) pop=nbo7 polar prop=efg volume g
 uess=read geom=check\\an2.xyz\\0,1\C,0,-2.717479313,-0.1024685901,-0.0
 03513664\C,0,-1.2103366978,-0.0367639451,-0.0387067437\C,0,-0.43900306
 5,-1.1705181372,-0.3186259021\C,0,0.951942368,-1.1259301013,-0.3204825
 439\C,0,1.6275205475,0.0716082577,-0.040843749\N,0,3.0241998501,0.1392
 482124,-0.1020004403\C,0,0.8629830652,1.2147946068,0.2371332595\C,0,-0
 .5273498804,1.1537173897,0.2350609841\H,0,-3.1002861797,-0.8618362932,

 Normal termination of Gaussian 16 at Thu Feb 16 10:17:58 2023.
 Gaussian 16:  ES64L-G16RevC.01  3-Jul-2019

 --------------------------------------------------------------------
 # M062X/def2tzvp int=(grid=ultrafine) nmr=giao guess=read geom=check
 --------------------------------------------------------------------

 -------
 an2.xyz
 -------
 Structure from the checkpoint file:  "an2_conf-1.chk"
 Charge =  0 Multiplicity = 1

                         Standard orientation:
 ---------------------------------------------------------------------
 Center     Atomic      Atomic             Coordinates (Angstroms)
 Number     Number       Type             X           Y           Z
 ---------------------------------------------------------------------
      1          6           0       -2.907587   -0.000007    0.023407
      2          6           0       -1.398965    0.000019   -0.009673
      3          6           0       -0.671251   -1.195446   -0.011336
      4          6           0        0.720381   -1.203933   -0.008362
      5          6           0        1.440959    0.000003   -0.006025
      6          7           0        2.839326   -0.000019   -0.066010
      7          6           0        0.720403    1.203937   -0.008360
      8          6           0       -0.671244    1.195462   -0.011335
      9          1           0       -3.317940   -0.883553   -0.475103
     10          1           0       -3.317879    0.885065   -0.472416
     11          1           0       -3.290058   -0.001579    1.052178
     12          1           0       -1.203868   -2.143244   -0.014263
     13          1           0        1.257555   -2.149015   -0.017390
     14          1           0        3.273493   -0.834286    0.305429
     15          1           0        3.273517    0.834254    0.305387
     16          1           0        1.257581    2.149017   -0.017385
     17          1           0       -1.203851    2.143264   -0.014257
 ---------------------------------------------------------------------

 SCF Done:  E(RM062X) =  -326.893704031     A.U. after    1 cycles

      1  C    Isotropic =   164.3501   Anisotropy =    39.9629

      2  C    Isotropic =    36.4877   Anisotropy =   211.8310

      3  C    Isotropic =    33.4012   Anisotropy =   193.9724

      4  C    Isotropic =    52.6352   Anisotropy =   166.0290

      5  C    Isotropic =    17.4978   Anisotropy =   203.9935

      6  N    Isotropic =   189.9325   Anisotropy =    98.3821

      7  C    Isotropic =    52.6402   Anisotropy =   166.0193

      8  C    Isotropic =    33.4023   Anisotropy =   193.9167

      9  H    Isotropic =    29.6912   Anisotropy =     7.6432

     10  H    Isotropic =    29.6932   Anisotropy =     7.6402

     11  H    Isotropic =    29.4568   Anisotropy =     8.5293

     12  H    Isotropic =    24.1399   Anisotropy =     7.6654

     13  H    Isotropic =    24.6782   Anisotropy =     6.9990

     14  H    Isotropic =    28.7756   Anisotropy =    10.7525

     15  H    Isotropic =    28.7756   Anisotropy =    10.7520

     16  H    Isotropic =    24.6786   Anisotropy =     6.9988

     17  H    Isotropic =    24.1405   Anisotropy =     7.6629

 The electronic state is 1-A.
 Alpha  occ. eigenvalues --  -14.74918 -10.57710 -10.53589 -10.53440 -10.53420
 Alpha  occ. eigenvalues --  -10.53196 -10.53195 -10.52663  -1.02361  -0.94011
 Alpha  occ. eigenvalues --   -0.84750  -0.83500  -0.75955  -0.69277  -0.65865
 Alpha  occ. eigenvalues --   -0.58814  -0.58051  -0.52849  -0.50259  -0.48771
 Alpha  occ. eigenvalues --   -0.48127  -0.47895  -0.44507  -0.43878  -0.40643
 Alpha  occ. eigenvalues --   -0.38962  -0.36796  -0.30182  -0.25202
 Alpha virt. eigenvalues --    0.02510   0.04262   0.06603   0.08286   0.09824
 Alpha virt. eigenvalues --    0.10642   0.12626   0.13829   0.16136   0.16171
 Alpha virt. eigenvalues --    0.17301   0.17496   0.18623   0.20106   0.22507

 Mulliken charges:
               1
     1  C   -0.478084
     2  C    0.081830
     3  C   -0.182563
     4  C   -0.220264
     5  C    0.273078
     6  N   -0.550897
     7  C   -0.220303
     8  C   -0.182567
     9  H    0.142966
    10  H    0.142898
    11  H    0.153411
    12  H    0.139099
    13  H    0.143056
    14  H    0.238102
    15  H    0.238101
    16  H    0.143055
    17  H    0.139081
 Sum of Mulliken charges =  -0.00000

 Dipole moment (field-independent basis, Debye):
    X=              0.8281    Y=             -0.0002    Z=              1.0677  Tot=              1.3512
 Quadrupole moment (field-independent basis, Debye-Ang):
   XX=            -40.6938   YY=            -43.3810   ZZ=            -53.2253
   XY=              0.0003   XZ=              3.8649   YZ=             -0.0001

 1\1\GINC-COMPUTE-0-26\SP\RM062X\def2TZVP\C7H9N1\SHEINS\16-Feb-2023\0\\
 # M062X/def2tzvp int=(grid=ultrafine) nmr=giao guess=read geom=check\\
 an2.xyz\\0,1\C,0,-2.717479313,-0.1024685901,-0.003513664\C,0,-1.210336
 6978,-0.0367639451,-0.0387067437\C,0,-0.439003065,-1.1705181372,-0.318
 6259021\C,0,0.951942368,-1.1259301013,-0.3204825439\C,0,1.6275205475,0
 .0716082577,-0.040843749\N,0,3.0241998501,0.1392482124,-0.1020004403\C
 ,0,0.8629830652,1.2147946068,0.2371332595\C,0,-0.5273498804,1.15371738
 97,0.2350609841\H,0,-3.1002861797,-0.8618362932,-0.6922611289\H,0,-3.1

 Normal termination of Gaussian 16 at Thu Feb 16 10:18:42 2023.
