 Gaussian 16, Revision C.01,

 ----------------------------------------------------------------------
 # B3LYP/6-31G(d,p) symmetry=loose empiricaldispersion=GD3BJ int=(grid=
 ultrafine) opt freq=noraman
 ----------------------------------------------------------------------

 -------
 an3.xyz
 -------
 Symbolic Z-matrix:
 Charge =  0 Multiplicity = 1

 SCF Done:  E(RB3LYP) =  -402.164397885     A.U. after   13 cycles
 SCF Done:  E(RB3LYP) =  -402.166909579     A.U. after   12 cycles
 SCF Done:  E(RB3LYP) =  -402.167572508     A.U. after   11 cycles
 SCF Done:  E(RB3LYP) =  -402.167930620     A.U. after   11 cycles
 SCF Done:  E(RB3LYP) =  -402.168061274     A.U. after    9 cycles
 SCF Done:  E(RB3LYP) =  -402.168122078     A.U. after   10 cycles
 SCF Done:  E(RB3LYP) =  -402.168124472     A.U. after    8 cycles
 SCF Done:  E(RB3LYP) =  -402.168124820     A.U. after    7 cycles
 Optimization completed.
    -- Stationary point found.
 Normal termination of Gaussian 16 at Thu Feb 16 10:29:21 2023.

 ----------------------------------------------------------------------
 #N Geom=AllCheck Guess=TCheck SCRF=Check GenChk RB3LYP/6-31G(d,p) Freq
 ----------------------------------------------------------------------

 Structure from the checkpoint file:  "an3_conf-1.chk"
 -------
 an3.xyz
 -------
 Charge =  0 Multiplicity = 1

 SCF Done:  E(RB3LYP) =  -402.168124820     A.U. after    1 cycles

                      1                      2                      3
                      A                      A                      A
 Frequencies --     77.7924               155.6274               235.2264
 Red. masses --      3.1177                 4.0688                 3.1924
 Frc consts  --      0.0111                 0.0581                 0.1041
 IR Inten    --      4.9249                 1.0410                 2.5699

                      4                      5                      6
                      A                      A                      A
 Frequencies --    244.5391               260.3088               370.7864
 Red. masses --      1.0487                 1.1366                 3.4546
 Frc consts  --      0.0369                 0.0454                 0.2798
 IR Inten    --     22.1118                 0.4630                 0.9278

                      7                      8                      9
                      A                      A                      A
 Frequencies --    371.4565               424.3857               432.0872
 Red. masses --      4.4454                 3.1790                 4.7948
 Frc consts  --      0.3614                 0.3373                 0.5274
 IR Inten    --      9.9265                 0.5832                 0.6744

                     10                     11                     12
                      A                      A                      A
 Frequencies --    522.3498               534.1786               648.6592
 Red. masses --      2.1508                 4.2198                 1.5431
 Frc consts  --      0.3458                 0.7094                 0.3825
 IR Inten    --     30.8926                 2.3950               336.8908

                     13                     14                     15
                      A                      A                      A
 Frequencies --    658.5705               713.5993               755.8757
 Red. masses --      6.3084                 4.1574                 3.4146
 Frc consts  --      1.6120                 1.2473                 1.1495
 IR Inten    --      6.9483                23.7253                 5.0125

                     16                     17                     18
                      A                      A                      A
 Frequencies --    807.2932               832.9903               861.3076
 Red. masses --      1.2819                 1.7498                 5.1295
 Frc consts  --      0.4922                 0.7154                 2.2420
 IR Inten    --      6.6085                66.9140                 4.5784

                     19                     20                     21
                      A                      A                      A
 Frequencies --    913.0863               937.6933              1026.8761
 Red. masses --      1.2978                 1.2853                 2.6618
 Frc consts  --      0.6375                 0.6658                 1.6537
 IR Inten    --      0.2871                 0.2870                 0.1371

                     22                     23                     24
                      A                      A                      A
 Frequencies --   1086.6178              1098.5750              1156.5516
 Red. masses --      5.2252                 1.4629                 1.1784
 Frc consts  --      3.6351                 1.0402                 0.9287
 IR Inten    --     52.9009                 7.1311                10.0399

                     25                     26                     27
                      A                      A                      A
 Frequencies --   1181.1797              1203.1072              1213.5865
 Red. masses --      1.2754                 1.1403                 1.3903
 Frc consts  --      1.0484                 0.9724                 1.2064
 IR Inten    --      0.7671                 1.7280                 8.4883

                     28                     29                     30
                      A                      A                      A
 Frequencies --   1286.6334              1314.8326              1342.8552
 Red. masses --      2.8946                 5.1617                 1.5219
 Frc consts  --      2.8232                 5.2575                 1.6169
 IR Inten    --    288.2142                 0.2783                 9.8528

                     31                     32                     33
                      A                      A                      A
 Frequencies --   1379.0747              1484.6430              1490.0372
 Red. masses --      3.8952                 2.1858                 1.3975
 Frc consts  --      4.3647                 2.8386                 1.8281
 IR Inten    --     29.6202                 2.5917                15.3163

                     34                     35                     36
                      A                      A                      A
 Frequencies --   1502.8798              1522.5436              1566.1837
 Red. masses --      1.0467                 1.0702                 2.5740
 Frc consts  --      1.3929                 1.4617                 3.7201
 IR Inten    --      4.7722                43.4106               219.7958

                     37                     38                     39
                      A                      A                      A
 Frequencies --   1643.1689              1663.3693              1690.3284
 Red. masses --      6.5147                 1.2118                 4.5703
 Frc consts  --     10.3635                 1.9754                 7.6937
 IR Inten    --      4.0885                56.1581                10.0462

                     40                     41                     42
                      A                      A                      A
 Frequencies --   3005.8873              3062.9225              3144.4291
 Red. masses --      1.0354                 1.1055                 1.0990
 Frc consts  --      5.5121                 6.1108                 6.4020
 IR Inten    --     61.4621                50.4359                29.7774

                     43                     44                     45
                      A                      A                      A
 Frequencies --   3173.7228              3175.0724              3210.1100
 Red. masses --      1.0894                 1.0887                 1.0932
 Frc consts  --      6.4650                 6.4663                 6.6373
 IR Inten    --     18.3741                20.9883                 7.3567

                     46                     47                     48
                      A                      A                      A
 Frequencies --   3221.9792              3556.3056              3658.6296
 Red. masses --      1.0912                 1.0481                 1.0972
 Frc consts  --      6.6744                 7.8098                 8.6527
 IR Inten    --     10.6250                 6.6250                 6.6956

 - Thermochemistry -
 -------------------
 Temperature   298.150 Kelvin.  Pressure   1.00000 Atm.
 Atom     1 has atomic number  6 and mass  12.00000

 Molecular mass:   123.06841 amu.
 Principal axes and moments of inertia in atomic units:
                                 1                 2                 3
     Eigenvalues --          371.750525       1826.184609       2184.525059
           X                   0.999863         -0.016016         -0.004244
           Y                   0.016008          0.999870         -0.001938
           Z                   0.004275          0.001869          0.999989
 This molecule is an asymmetric top.
 Rotational symmetry number  1.
 Rotational temperatures (Kelvin)      0.23299     0.04743     0.03965
 Rotational constants (GHZ):           4.85471     0.98826     0.82615
 Zero-point vibrational energy     393690.5 (Joules/Mol)
                                   94.09429 (Kcal/Mol)
 Warning -- explicit consideration of  11 degrees of freedom as
           vibrations may cause significant error
 Vibrational temperatures:    111.93   223.91   338.44   351.84   374.53
          (Kelvin)            533.48   534.44   610.60   621.68   751.54
                              768.56   933.28   947.54  1026.71  1087.54
                             1161.51  1198.49  1239.23  1313.73  1349.13
                             1477.45  1563.40  1580.60  1664.02  1699.45
                             1731.00  1746.08  1851.18  1891.75  1932.07
                             1984.18  2136.07  2143.83  2162.31  2190.60
                             2253.39  2364.15  2393.22  2432.01  4324.80
                             4406.86  4524.13  4566.28  4568.22  4618.63
                             4635.71  5116.73  5263.95

 Zero-point correction=                           0.149949 (Hartree/Particle)
 Thermal correction to Energy=                    0.158315
 Thermal correction to Enthalpy=                  0.159259
 Thermal correction to Gibbs Free Energy=         0.117151
 Sum of electronic and zero-point Energies=           -402.018176
 Sum of electronic and thermal Energies=              -402.009810
 Sum of electronic and thermal Enthalpies=            -402.008866
 Sum of electronic and thermal Free Energies=         -402.050974

                     E (Thermal)             CV                S
                      KCal/Mol        Cal/Mol-Kelvin    Cal/Mol-Kelvin
 Total                   99.344             32.273             88.625
 Electronic               0.000              0.000              0.000
 Translational            0.889              2.981             40.337
 Rotational               0.889              2.981             28.785
 Vibrational             97.567             26.311             19.503
 Vibration     1          0.599              1.964              3.946
 Vibration     2          0.620              1.896              2.602
 Vibration     3          0.655              1.787              1.839
 Vibration     4          0.660              1.772              1.770
 Vibration     5          0.668              1.745              1.660
 Vibration     6          0.743              1.532              1.077
 Vibration     7          0.743              1.531              1.074
 Vibration     8          0.786              1.417              0.877
 Vibration     9          0.793              1.400              0.852
 Vibration    10          0.877              1.201              0.605
 Vibration    11          0.889              1.174              0.578

                           ! Non-Optimized Parameters !
 Normal termination of Gaussian 16 at Thu Feb 16 10:30:04 2023.

 ----------------------------------------------------------------------
 # M062X/def2tzvp int=(grid=ultrafine) pop=nbo7 polar prop=efg volume g
 uess=read geom=check
 ----------------------------------------------------------------------

 -------
 an3.xyz
 -------
 Structure from the checkpoint file:  "an3_conf-1.chk"
 Charge =  0 Multiplicity = 1

 SCF Done:  E(RM062X) =  -402.106942522     A.U. after   12 cycles

  Exact polarizability:     129.991      -0.917      94.598      -0.224      -0.014      56.613
 Approx polarizability:     147.732       1.155     129.654       0.212       0.050      75.493

 Summary of Natural Population Analysis:

                                     Natural Population
             Natural    ---------------------------------------------
  Atom No    Charge        Core      Valence    Rydberg      Total
 --------------------------------------------------------------------
    C  1   -0.25585      1.99999     4.24094    0.01491     6.25585
    O  2   -0.47555      1.99999     6.45297    0.02258     8.47555
    C  3    0.25520      1.99999     3.72529    0.01952     5.74480
    C  4   -0.22928      1.99999     4.21216    0.01712     6.22928
    C  5   -0.23995      1.99999     4.22381    0.01615     6.23995
    C  6    0.13392      1.99999     3.85018    0.01591     5.86608
    N  7   -0.80015      1.99999     5.77614    0.02402     7.80015
    C  8   -0.24511      1.99999     4.22794    0.01717     6.24511
    C  9   -0.28325      1.99999     4.26666    0.01660     6.28325
    H 10    0.19663      0.00000     0.80226    0.00110     0.80337
    H 11    0.16961      0.00000     0.82834    0.00205     0.83039
    H 12    0.17029      0.00000     0.82766    0.00205     0.82971
    H 13    0.22486      0.00000     0.77379    0.00135     0.77514
    H 14    0.20942      0.00000     0.78916    0.00142     0.79058
    H 15    0.37181      0.00000     0.62648    0.00170     0.62819
    H 16    0.37170      0.00000     0.62661    0.00169     0.62830
    H 17    0.20778      0.00000     0.79068    0.00154     0.79222
    H 18    0.21790      0.00000     0.78048    0.00161     0.78210
 ====================================================================
 * Total *  0.00000     17.99993    47.82156    0.17851    66.00000

 Normal termination of Gaussian 16 at Thu Feb 16 10:32:31 2023.
 Gaussian 16:  ES64L-G16RevC.01  3-Jul-2019

 --------------------------------------------------------------------
 # M062X/def2tzvp int=(grid=ultrafine) nmr=giao guess=read geom=check
 --------------------------------------------------------------------

 -------
 an3.xyz
 -------
 Structure from the checkpoint file:  "an3_conf-1.chk"
 Charge =  0 Multiplicity = 1

                         Standard orientation:
 ---------------------------------------------------------------------
 Center     Atomic      Atomic             Coordinates (Angstroms)
 Number     Number       Type             X           Y           Z
 ---------------------------------------------------------------------
      1          6           0        3.195940   -0.499869    0.004502
      2          8           0        2.285909    0.582917    0.008209
      3          6           0        0.947149    0.282989    0.000504
      4          6           0        0.073685    1.377123   -0.000910
      5          6           0       -1.300229    1.183590   -0.006607
      6          6           0       -1.847813   -0.110966   -0.009262
      7          7           0       -3.238109   -0.301658   -0.077736
      8          6           0       -0.966977   -1.197162   -0.007164
      9          6           0        0.417328   -1.009038   -0.002926
     10          1           0        4.194160   -0.059532    0.007511
     11          1           0        3.079116   -1.132982    0.894499
     12          1           0        3.080699   -1.125183   -0.891088
     13          1           0        0.495452    2.376546    0.003861
     14          1           0       -1.963089    2.044931   -0.013512
     15          1           0       -3.773580    0.458840    0.320610
     16          1           0       -3.547343   -1.187470    0.300983
     17          1           0       -1.364281   -2.208853   -0.013665
     18          1           0        1.063852   -1.878031    0.000454
 ---------------------------------------------------------------------

 SCF Done:  E(RM062X) =  -402.106942522     A.U. after    1 cycles

      1  C    Isotropic =   130.4416   Anisotropy =    72.0458

      2  O    Isotropic =   239.7205   Anisotropy =    84.4364

      3  C    Isotropic =    11.8150   Anisotropy =   154.8069

      4  C    Isotropic =    46.4854   Anisotropy =   175.9018

      5  C    Isotropic =    50.2106   Anisotropy =   170.0307

      6  C    Isotropic =    22.9029   Anisotropy =   195.3125

      7  N    Isotropic =   192.9458   Anisotropy =    97.4943

      8  C    Isotropic =    52.7973   Anisotropy =   164.5698

      9  C    Isotropic =    58.6183   Anisotropy =   184.3149

     10  H    Isotropic =    28.0103   Anisotropy =     8.2465

     11  H    Isotropic =    28.4235   Anisotropy =     7.9643

     12  H    Isotropic =    28.4154   Anisotropy =     7.9719

     13  H    Isotropic =    24.3708   Anisotropy =     6.8428

     14  H    Isotropic =    24.6347   Anisotropy =     6.8151

     15  H    Isotropic =    28.9442   Anisotropy =    11.0550

     16  H    Isotropic =    28.9090   Anisotropy =    10.8682

     17  H    Isotropic =    24.6637   Anisotropy =     7.2085

     18  H    Isotropic =    24.6973   Anisotropy =     8.3214

 The electronic state is 1-A.
 Alpha  occ. eigenvalues --  -19.64752 -14.74723 -10.59042 -10.58602 -10.57452
 Alpha  occ. eigenvalues --  -10.53861 -10.53700 -10.53640 -10.53495  -1.18022
 Alpha  occ. eigenvalues --   -1.02141  -0.93617  -0.84403  -0.83011  -0.77421
 Alpha  occ. eigenvalues --   -0.69875  -0.66761  -0.60765  -0.58657  -0.57051
 Alpha  occ. eigenvalues --   -0.54274  -0.52858  -0.51307  -0.48604  -0.46887
 Alpha  occ. eigenvalues --   -0.46165  -0.44701  -0.42104  -0.41198  -0.38691
 Alpha  occ. eigenvalues --   -0.34984  -0.30587  -0.24275
 Alpha virt. eigenvalues --    0.02215   0.05135   0.06713   0.07785   0.09944
 Alpha virt. eigenvalues --    0.10244   0.12007   0.13578   0.14471   0.15309
 Alpha virt. eigenvalues --    0.15461   0.17080   0.17808   0.20213   0.21685

 Mulliken charges:
               1
     1  C   -0.298106
     2  O   -0.290062
     3  C    0.254350
     4  C   -0.209202
     5  C   -0.195241
     6  C    0.254576
     7  N   -0.552198
     8  C   -0.223387
     9  C   -0.254144
    10  H    0.151408
    11  H    0.145521
    12  H    0.147059
    13  H    0.149756
    14  H    0.146919
    15  H    0.236708
    16  H    0.236301
    17  H    0.144252
    18  H    0.155489
 Sum of Mulliken charges =  -0.00000

 Dipole moment (field-independent basis, Debye):
    X=             -0.5302    Y=             -1.2157    Z=              1.0747  Tot=              1.7071
 Quadrupole moment (field-independent basis, Debye-Ang):
   XX=            -43.1782   YY=            -48.7015   ZZ=            -58.4031
   XY=             -3.4250   XZ=             -4.5158   YZ=             -0.4355

 Normal termination of Gaussian 16 at Thu Feb 16 10:33:28 2023.
