 Gaussian 16, Revision C.01,

 ----------------------------------------------------------------------
 # B3LYP/6-31G(d,p) symmetry=loose empiricaldispersion=GD3BJ int=(grid=
 ultrafine) opt freq=noraman
 ----------------------------------------------------------------------

 ----------
 pyrd10.xyz
 ----------
 Symbolic Z-matrix:
 Charge =  0 Multiplicity = 1

 SCF Done:  E(RB3LYP) =  -2937.38174765     A.U. after   14 cycles
 SCF Done:  E(RB3LYP) =  -2937.38375738     A.U. after   11 cycles
 SCF Done:  E(RB3LYP) =  -2937.38390654     A.U. after   10 cycles
 SCF Done:  E(RB3LYP) =  -2937.38391541     A.U. after    9 cycles
 Optimization completed.
    -- Stationary point found.
 Normal termination of Gaussian 16 at Wed Aug 14 18:46:27 2024.

 ----------------------------------------------------------------------
 #N Geom=AllCheck Guess=TCheck SCRF=Check GenChk RB3LYP/6-31G(d,p) Freq
 ----------------------------------------------------------------------

 Structure from the checkpoint file:  "pyrd10_conf-10.chk"
 ----------
 pyrd10.xyz
 ----------
 Charge =  0 Multiplicity = 1

 SCF Done:  E(RB3LYP) =  -2937.38391541     A.U. after    1 cycles
 ******    1 imaginary frequencies (negative Signs) ******

                      1                      2                      3
                      A                      A                      A
 Frequencies --    -14.6783                72.3951                96.2897
 Red. masses --      4.0990                 6.3771                 2.2738
 Frc consts  --      0.0005                 0.0197                 0.0124
 IR Inten    --      3.5208                 1.6985                 0.8058

                      4                      5                      6
                      A                      A                      A
 Frequencies --    100.4997               200.4430               211.7231
 Red. masses --      2.3092                 8.6356                 2.8069
 Frc consts  --      0.0137                 0.2044                 0.0741
 IR Inten    --      0.1677                 0.6478                 0.5686

                      7                      8                      9
                      A                      A                      A
 Frequencies --    259.2248               411.3632               422.7965
 Red. masses --      4.3760                 3.0407                 4.0400
 Frc consts  --      0.1733                 0.3032                 0.4255
 IR Inten    --      0.2671                 2.8265                 9.0894

                     10                     11                     12
                      A                      A                      A
 Frequencies --    467.2782               578.1504               636.7962
 Red. masses --      3.2583                 5.5046                 7.2103
 Frc consts  --      0.4192                 1.0841                 1.7227
 IR Inten    --      0.0375                 1.6763                19.5466

                     13                     14                     15
                      A                      A                      A
 Frequencies --    680.3970               728.2069               748.5560
 Red. masses --      5.2813                 2.3408                 1.1033
 Frc consts  --      1.4405                 0.7313                 0.3643
 IR Inten    --     14.0586                18.2871                 0.1844

                     16                     17                     18
                      A                      A                      A
 Frequencies --    789.0414               833.7571               843.3495
 Red. masses --      1.3106                 4.8125                 1.3973
 Frc consts  --      0.4808                 1.9711                 0.5855
 IR Inten    --     13.8745                 1.1895                 4.4079

                     19                     20                     21
                      A                      A                      A
 Frequencies --    948.7669               962.4341               997.2403
 Red. masses --      1.3264                 1.3590                 1.3732
 Frc consts  --      0.7035                 0.7417                 0.8046
 IR Inten    --      0.0546                 0.0945                 0.0359

                     22                     23                     24
                      A                      A                      A
 Frequencies --   1040.8299              1042.6776              1047.6110
 Red. masses --      4.0582                 1.3321                 4.0216
 Frc consts  --      2.5903                 0.8533                 2.6005
 IR Inten    --     16.2279                 2.7520                 2.0112

                     25                     26                     27
                      A                      A                      A
 Frequencies --   1065.0851              1079.8135              1151.5318
 Red. masses --      3.2882                 2.7705                 1.2195
 Frc consts  --      2.1978                 1.9033                 0.9528
 IR Inten    --      0.1756                 0.4240                 0.0020

                     28                     29                     30
                      A                      A                      A
 Frequencies --   1154.7710              1208.6988              1233.5085
 Red. masses --      1.4729                 1.7654                 1.2961
 Frc consts  --      1.1572                 1.5196                 1.1619
 IR Inten    --      2.9397                15.8297                11.8818

                     31                     32                     33
                      A                      A                      A
 Frequencies --   1249.2839              1300.7761              1304.6610
 Red. masses --      1.4960                 1.2420                 2.9914
 Frc consts  --      1.3756                 1.2382                 3.0000
 IR Inten    --      5.0985                 1.1131                27.7441

                     34                     35                     36
                      A                      A                      A
 Frequencies --   1332.6536              1333.4882              1371.9523
 Red. masses --      1.9468                 1.0706                 1.3382
 Frc consts  --      2.0370                 1.1216                 1.4840
 IR Inten    --     10.8844                 0.0036                 5.7041

                     37                     38                     39
                      A                      A                      A
 Frequencies --   1405.6223              1468.0995              1491.2862
 Red. masses --      1.4694                 2.2867                 1.1165
 Frc consts  --      1.7106                 2.9038                 1.4630
 IR Inten    --      9.0567                12.5164                 4.0256

                     40                     41                     42
                      A                      A                      A
 Frequencies --   1499.0394              1518.5498              1524.5036
 Red. masses --      1.0968                 1.1462                 2.0189
 Frc consts  --      1.4521                 1.5573                 2.7646
 IR Inten    --      3.1569                 7.5757                13.0160

                     43                     44                     45
                      A                      A                      A
 Frequencies --   1630.4201              1651.4653              3022.7036
 Red. masses --      5.1085                 5.6360                 1.0597
 Frc consts  --      8.0009                 9.0565                 5.7046
 IR Inten    --     18.4566                 0.0294                13.6355

                     46                     47                     48
                      A                      A                      A
 Frequencies --   3051.2304              3058.7737              3104.0956
 Red. masses --      1.1019                 1.0594                 1.1053
 Frc consts  --      6.0444                 5.8399                 6.2747
 IR Inten    --     12.0368                10.9094                14.8754

                     49                     50                     51
                      A                      A                      A
 Frequencies --   3105.2433              3139.9902              3168.0302
 Red. masses --      1.0566                 1.0896                 1.0894
 Frc consts  --      6.0029                 6.3298                 6.4416
 IR Inten    --     14.3659                29.8375                18.4207

                     52                     53                     54
                      A                      A                      A
 Frequencies --   3172.7869              3198.0501              3213.5642
 Red. masses --      1.1117                 1.0895                 1.0960
 Frc consts  --      6.5935                 6.5649                 6.6686
 IR Inten    --      8.6679                17.1044                12.1178

 - Thermochemistry -
 -------------------
 Temperature   298.150 Kelvin.  Pressure   1.00000 Atm.
 Atom     1 has atomic number 35 and mass  78.91834

 Molecular mass:   198.99966 amu.
 Principal axes and moments of inertia in atomic units:
                                 1                 2                 3
     Eigenvalues --          471.646589       6882.607181       7320.684839
           X                   0.999926         -0.012137         -0.000002
           Y                   0.012137          0.999926         -0.000001
           Z                   0.000002          0.000001          1.000000
 This molecule is an asymmetric top.
 Rotational symmetry number  1.
 Warning -- assumption of classical behavior for rotation
           may cause significant error
 Rotational temperatures (Kelvin)      0.18364     0.01258     0.01183
 Rotational constants (GHZ):           3.82647     0.26222     0.24653
    1 imaginary frequencies ignored.
 Zero-point vibrational energy     432626.5 (Joules/Mol)
                                  103.40022 (Kcal/Mol)
 Warning -- explicit consideration of  10 degrees of freedom as
           vibrations may cause significant error
 Vibrational temperatures:    104.16   138.54   144.60   288.39   304.62
          (Kelvin)            372.97   591.86   608.31   672.31   831.83
                              916.21   978.94  1047.73  1077.01  1135.25
                             1199.59  1213.39  1365.06  1384.73  1434.81
                             1497.52  1500.18  1507.28  1532.42  1553.61
                             1656.80  1661.46  1739.05  1774.74  1797.44
                             1871.53  1877.12  1917.39  1918.59  1973.93
                             2022.38  2112.27  2145.63  2156.78  2184.85
                             2193.42  2345.81  2376.09  4349.00  4390.04
                             4400.89  4466.10  4467.75  4517.75  4558.09
                             4564.93  4601.28  4623.60

 Zero-point correction=                           0.164779 (Hartree/Particle)
 Thermal correction to Energy=                    0.173582
 Thermal correction to Enthalpy=                  0.174526
 Thermal correction to Gibbs Free Energy=         0.128833
 Sum of electronic and zero-point Energies=          -2937.219137
 Sum of electronic and thermal Energies=             -2937.210334
 Sum of electronic and thermal Enthalpies=           -2937.209390
 Sum of electronic and thermal Free Energies=        -2937.255083

                     E (Thermal)             CV                S
                      KCal/Mol        Cal/Mol-Kelvin    Cal/Mol-Kelvin
 Total                  108.924             32.812             96.169
 Electronic               0.000              0.000              0.000
 Translational            0.889              2.981             41.769
 Rotational               0.889              2.981             31.541
 Vibrational            107.147             26.850             22.859
 Vibration     1          0.598              1.967              4.087
 Vibration     2          0.603              1.952              3.528
 Vibration     3          0.604              1.949              3.445
 Vibration     4          0.638              1.839              2.129
 Vibration     5          0.643              1.823              2.029
 Vibration     6          0.668              1.747              1.667
 Vibration     7          0.775              1.446              0.922
 Vibration     8          0.785              1.421              0.883
 Vibration     9          0.825              1.323              0.745
 Vibration    10          0.935              1.079              0.489

 Optimization completed.
    -- Stationary point found.
 Normal termination of Gaussian 16 at Wed Aug 14 18:47:33 2024.

 ----------------------------------------------------------------------
 # M062X/def2tzvp int=(grid=ultrafine) pop=nbo7 polar prop=efg volume g
 uess=read geom=check
 ----------------------------------------------------------------------

 ----------
 pyrd10.xyz
 ----------
 Structure from the checkpoint file:  "pyrd10_conf-10.chk"
 Charge =  0 Multiplicity = 1

 SCF Done:  E(RM062X) =  -2939.78681128     A.U. after   11 cycles

  Exact polarizability:     160.351      -0.170     117.021      -0.003      -0.001      75.431
 Approx polarizability:     172.019       4.677     162.807      -0.005      -0.002     105.650

 Summary of Natural Population Analysis:

                                     Natural Population
             Natural    ---------------------------------------------
  Atom No    Charge        Core      Valence    Rydberg      Total
 --------------------------------------------------------------------
   Br  1   -0.04095     27.99997     7.03079    0.01019    35.04095
    C  2   -0.38974      1.99999     4.37147    0.01828     6.38974
    C  3   -0.42878      1.99999     4.41290    0.01588     6.42878
    C  4   -0.41918      1.99999     4.40706    0.01213     6.41918
    C  5   -0.05768      1.99999     4.04168    0.01601     6.05768
    C  6    0.03954      1.99999     3.93880    0.02167     5.96046
    N  7   -0.40761      1.99999     5.37598    0.03164     7.40761
    C  8    0.02016      1.99999     3.95747    0.02239     5.97984
    C  9   -0.24777      1.99999     4.23146    0.01631     6.24777
    C 10   -0.18546      1.99999     4.16949    0.01598     6.18546
    H 11    0.21574      0.00000     0.78232    0.00194     0.78426
    H 12    0.21574      0.00000     0.78232    0.00194     0.78426
    H 13    0.21422      0.00000     0.78370    0.00208     0.78578
    H 14    0.21423      0.00000     0.78370    0.00208     0.78577
    H 15    0.21757      0.00000     0.78057    0.00186     0.78243
    H 16    0.21757      0.00000     0.78057    0.00186     0.78243
    H 17    0.18826      0.00000     0.81018    0.00156     0.81174
    H 18    0.19556      0.00000     0.80304    0.00140     0.80444
    H 19    0.22113      0.00000     0.77773    0.00114     0.77887
    H 20    0.21747      0.00000     0.78109    0.00144     0.78253
 ====================================================================
 * Total *  0.00000     45.99990    53.80232    0.19778   100.00000

 Normal termination of Gaussian 16 at Wed Aug 14 18:50:57 2024.
 Gaussian 16:  ES64L-G16RevC.01  3-Jul-2019

 --------------------------------------------------------------------
 # M062X/def2tzvp int=(grid=ultrafine) nmr=giao guess=read geom=check
 --------------------------------------------------------------------

 ----------
 pyrd10.xyz
 ----------
 Structure from the checkpoint file:  "pyrd10_conf-10.chk"
 Charge =  0 Multiplicity = 1

                         Standard orientation:
 ---------------------------------------------------------------------
 Center     Atomic      Atomic             Coordinates (Angstroms)
 Number     Number       Type             X           Y           Z
 ---------------------------------------------------------------------
      1         35           0       -3.445536   -0.292346   -0.000078
      2          6           0       -1.882629    0.917991    0.000108
      3          6           0       -0.582956    0.132022    0.000064
      4          6           0        0.626567    1.072284    0.000239
      5          6           0        1.977754    0.386528    0.000103
      6          6           0        3.142810    1.167872   -0.000113
      7          7           0        4.385781    0.682197   -0.000228
      8          6           0        4.522624   -0.651074   -0.000134
      9          6           0        3.440785   -1.527350    0.000074
     10          6           0        2.149852   -0.999063    0.000194
     11          1           0       -1.995965    1.536488   -0.890378
     12          1           0       -1.996024    1.536291    0.890723
     13          1           0       -0.558726   -0.519689    0.879752
     14          1           0       -0.558639   -0.519466   -0.879789
     15          1           0        0.569152    1.734224    0.874859
     16          1           0        0.569156    1.734556   -0.874129
     17          1           0        3.056427    2.254882   -0.000204
     18          1           0        5.542293   -1.030663   -0.000229
     19          1           0        3.603326   -2.600287    0.000138
     20          1           0        1.293438   -1.664856    0.000352
 ---------------------------------------------------------------------

 SCF Done:  E(RM062X) =  -2939.78681128     A.U. after    1 cycles

      1  Br   Isotropic =  2331.8436   Anisotropy =  1034.9512

      2  C    Isotropic =   139.3530   Anisotropy =    52.7666

      3  C    Isotropic =   150.6753   Anisotropy =    35.7200

      4  C    Isotropic =   152.9645   Anisotropy =    33.9820

      5  C    Isotropic =    28.3329   Anisotropy =   219.7202

      6  C    Isotropic =     9.0930   Anisotropy =   190.4697

      7  N    Isotropic =  -152.9272   Anisotropy =   677.8019

      8  C    Isotropic =    12.9729   Anisotropy =   201.7351

      9  C    Isotropic =    42.2163   Anisotropy =   204.5923

     10  C    Isotropic =    31.1907   Anisotropy =   228.5080

     11  H    Isotropic =    28.4929   Anisotropy =     9.7710

     12  H    Isotropic =    28.4929   Anisotropy =     9.7706

     13  H    Isotropic =    29.6873   Anisotropy =     4.8044

     14  H    Isotropic =    29.6878   Anisotropy =     4.8028

     15  H    Isotropic =    29.1276   Anisotropy =     7.0099

     16  H    Isotropic =    29.1276   Anisotropy =     7.0117

     17  H    Isotropic =    22.3510   Anisotropy =    10.8648

     18  H    Isotropic =    22.4251   Anisotropy =     7.3085

     19  H    Isotropic =    23.9695   Anisotropy =     7.4264

     20  H    Isotropic =    23.6391   Anisotropy =    12.2152

 The electronic state is 1-A.
 Alpha  occ. eigenvalues -- -485.36466 -63.34971 -57.16913 -57.16675 -57.16672
 Alpha  occ. eigenvalues --  -14.75304 -10.60492 -10.57961 -10.57792 -10.56739
 Alpha  occ. eigenvalues --  -10.56483 -10.56331 -10.56121 -10.55565  -9.01611
 Alpha  occ. eigenvalues --   -6.84011  -6.83140  -6.83130  -2.87377  -2.87066
 Alpha  occ. eigenvalues --   -2.87058  -2.86245  -2.86245  -1.05551  -0.94575
 Alpha  occ. eigenvalues --   -0.91225  -0.88105  -0.84274  -0.77219  -0.72723
 Alpha  occ. eigenvalues --   -0.70565  -0.67923  -0.60502  -0.57483  -0.56278
 Alpha  occ. eigenvalues --   -0.53846  -0.50839  -0.50351  -0.48736  -0.47677
 Alpha  occ. eigenvalues --   -0.46870  -0.45455  -0.42669  -0.41954  -0.41179
 Alpha  occ. eigenvalues --   -0.34941  -0.34164  -0.34016  -0.32696  -0.31384
 Alpha virt. eigenvalues --   -0.00105   0.00823   0.02406   0.06006   0.07853
 Alpha virt. eigenvalues --    0.08838   0.09495   0.10358   0.12173   0.13147
 Alpha virt. eigenvalues --    0.14050   0.14553   0.14859   0.15142   0.17884

 Mulliken charges:
               1
     1  Br  -0.151207
     2  C   -0.205457
     3  C   -0.340135
     4  C   -0.335896
     5  C    0.111197
     6  C   -0.097369
     7  N   -0.219977
     8  C   -0.055689
     9  C   -0.162148
    10  C   -0.148821
    11  H    0.169443
    12  H    0.169439
    13  H    0.168941
    14  H    0.168964
    15  H    0.163085
    16  H    0.163086
    17  H    0.144700
    18  H    0.144923
    19  H    0.142906
    20  H    0.170014
 Sum of Mulliken charges =  -0.00000

 Dipole moment (field-independent basis, Debye):
    X=             -0.2075    Y=             -0.0142    Z=              0.0006  Tot=              0.2080
 Quadrupole moment (field-independent basis, Debye-Ang):
   XX=            -91.8098   YY=            -67.5264   ZZ=            -74.7778
   XY=             -9.3036   XZ=              0.0006   YZ=              0.0000

 Normal termination of Gaussian 16 at Wed Aug 14 18:52:12 2024.
