 Gaussian 16, Revision C.01,

 ----------------------------------------------------------------------
 # B3LYP/6-31G(d,p) symmetry=loose empiricaldispersion=GD3BJ int=(grid=
 ultrafine) opt freq=noraman
 ----------------------------------------------------------------------

 ----------
 pyrmd1.xyz
 ----------
 Symbolic Z-matrix:
 Charge =  0 Multiplicity = 1

 SCF Done:  E(RB3LYP) =  -626.270071303     A.U. after   15 cycles
 SCF Done:  E(RB3LYP) =  -626.275596392     A.U. after   12 cycles
 SCF Done:  E(RB3LYP) =  -626.276081954     A.U. after   11 cycles
 SCF Done:  E(RB3LYP) =  -626.276123394     A.U. after   10 cycles
 SCF Done:  E(RB3LYP) =  -626.276126757     A.U. after    8 cycles
 SCF Done:  E(RB3LYP) =  -626.276122864     A.U. after    9 cycles
 SCF Done:  E(RB3LYP) =  -626.276128746     A.U. after    8 cycles
 SCF Done:  E(RB3LYP) =  -626.276129585     A.U. after    8 cycles
 Optimization completed.
    -- Stationary point found.
 Normal termination of Gaussian 16 at Wed Aug 14 20:16:21 2024.

 ----------------------------------------------------------------------
 #N Geom=AllCheck Guess=TCheck SCRF=Check GenChk RB3LYP/6-31G(d,p) Freq
 ----------------------------------------------------------------------

 Structure from the checkpoint file:  "pyrmd1_conf-1.chk"
 ----------
 pyrmd1.xyz
 ----------
 Charge =  0 Multiplicity = 1

 SCF Done:  E(RB3LYP) =  -626.276131633     A.U. after    4 cycles
 ******    1 imaginary frequencies (negative Signs) ******

                      1                      2                      3
                     A"                     A"                     A"
 Frequencies --    -99.3183                32.7698                66.7907
 Red. masses --      1.3499                 3.2640                 5.2977
 Frc consts  --      0.0078                 0.0021                 0.0139
 IR Inten    --    222.0299                 0.6299                 0.2334

                      4                      5                      6
                     A"                     A'                     A"
 Frequencies --     73.4684               106.2759               123.4929
 Red. masses --      2.5275                 3.8710                 2.5680
 Frc consts  --      0.0080                 0.0258                 0.0231
 IR Inten    --      7.8811                 1.0559                 1.2780

                      7                      8                      9
                     A"                     A"                     A"
 Frequencies --    164.6296               210.8913               255.1578
 Red. masses --      1.0978                 3.4004                 1.4472
 Frc consts  --      0.0175                 0.0891                 0.0555
 IR Inten    --      2.4888                 0.5324                 3.5979

                     10                     11                     12
                     A'                     A"                     A'
 Frequencies --    256.7146               292.9399               293.0168
 Red. masses --      4.1595                 3.6427                 3.6326
 Frc consts  --      0.1615                 0.1842                 0.1838
 IR Inten    --      3.0118                16.1890                 1.3817

                     13                     14                     15
                     A'                     A'                     A'
 Frequencies --    349.3836               384.5616               429.9481
 Red. masses --      3.4448                 6.0204                 3.4121
 Frc consts  --      0.2478                 0.5246                 0.3716
 IR Inten    --     10.2665                12.4007                 0.4785

                     16                     17                     18
                     A"                     A'                     A"
 Frequencies --    453.1732               532.6803               573.7923
 Red. masses --      3.3237                 3.4475                 1.0378
 Frc consts  --      0.4022                 0.5764                 0.2013
 IR Inten    --      0.2235                13.8354                 0.0005

                     19                     20                     21
                     A'                     A"                     A'
 Frequencies --    583.3087               629.6459               668.7313
 Red. masses --      6.1252                 3.6563                 7.9665
 Frc consts  --      1.2279                 0.8541                 2.0990
 IR Inten    --      0.4253                 2.2869                 7.8612

                     22                     23                     24
                     A"                     A'                     A"
 Frequencies --    759.4241               778.9045               814.0677
 Red. masses --      8.5868                 5.4858                 1.2817
 Frc consts  --      2.9178                 1.9609                 0.5005
 IR Inten    --      3.8588                 2.6988                 6.4905

                     25                     26                     27
                     A"                     A'                     A'
 Frequencies --    817.4895               855.9806               898.6180
 Red. masses --      4.3862                 6.9459                 2.4604
 Frc consts  --      1.7270                 2.9985                 1.1706
 IR Inten    --     20.1609                 2.9059                 1.1211

                     28                     29                     30
                     A'                     A"                     A'
 Frequencies --    974.5831               996.9844              1014.2019
 Red. masses --      3.2678                 1.4524                 1.6055
 Frc consts  --      1.8287                 0.8506                 0.9730
 IR Inten    --      0.7019                 1.6738                 8.9535

                     31                     32                     33
                     A'                     A"                     A'
 Frequencies --   1047.1943              1060.1121              1094.6653
 Red. masses --      3.1100                 1.6277                 2.1824
 Frc consts  --      2.0094                 1.0778                 1.5408
 IR Inten    --      8.8885                 4.5329                23.0393

                     34                     35                     36
                     A'                     A'                     A"
 Frequencies --   1138.6555              1142.3445              1186.5189
 Red. masses --      6.5079                 2.2909                 1.5461
 Frc consts  --      4.9714                 1.7614                 1.2824
 IR Inten    --    269.6794                10.7904                 4.0616

                     37                     38                     39
                     A'                     A'                     A"
 Frequencies --   1261.9868              1294.5226              1297.2249
 Red. masses --      3.1979                 4.4759                 1.0999
 Frc consts  --      3.0007                 4.4192                 1.0905
 IR Inten    --    172.4637               277.5365                 0.5931

                     40                     41                     42
                     A'                     A'                     A'
 Frequencies --   1323.6850              1386.8728              1405.8735
 Red. masses --      3.1806                 2.4068                 1.4110
 Frc consts  --      3.2835                 2.7275                 1.6432
 IR Inten    --    345.6362                 9.0488                25.1346

                     43                     44                     45
                     A'                     A'                     A'
 Frequencies --   1416.9942              1439.3646              1446.4506
 Red. masses --      1.2995                 1.4295                 1.6080
 Frc consts  --      1.5374                 1.7450                 1.9821
 IR Inten    --     16.7785                14.2946                 7.5595

                     46                     47                     48
                     A"                     A'                     A"
 Frequencies --   1486.2063              1492.3775              1500.9133
 Red. masses --      1.0453                 1.9141                 1.0396
 Frc consts  --      1.3603                 2.5117                 1.3798
 IR Inten    --      6.4537                39.6810                 5.1918

                     49                     50                     51
                     A'                     A'                     A'
 Frequencies --   1507.6842              1512.7253              1534.1012
 Red. masses --      2.2097                 1.0487                 1.0923
 Frc consts  --      2.9594                 1.4139                 1.5146
 IR Inten    --     81.8407                 3.1003                 3.1231

                     52                     53                     54
                     A'                     A'                     A'
 Frequencies --   1579.3695              1640.4011              1660.6143
 Red. masses --      7.2478                 2.7273                 3.2351
 Frc consts  --     10.6518                 4.3240                 5.2562
 IR Inten    --    184.1389                 9.9198              1011.5211

                     55                     56                     57
                     A'                     A'                     A'
 Frequencies --   1787.0525              3056.1626              3064.9603
 Red. masses --     12.0635                 1.0354                 1.0581
 Frc consts  --     22.6985                 5.6977                 5.8565
 IR Inten    --    251.5748                17.1408                20.2902

                     58                     59                     60
                     A'                     A"                     A'
 Frequencies --   3070.0604              3104.5088              3131.7317
 Red. masses --      1.0352                 1.1078                 1.1020
 Frc consts  --      5.7485                 6.2909                 6.3679
 IR Inten    --      4.2298                 8.5744                25.8683

                     61                     62                     63
                     A"                     A"                     A'
 Frequencies --   3133.4099              3138.4565              3168.3537
 Red. masses --      1.0987                 1.1048                 1.1061
 Frc consts  --      6.3557                 6.4117                 6.5420
 IR Inten    --      4.0136                36.7484                14.5108

                     64                     65                     66
                     A'                     A'                     A'
 Frequencies --   3202.1455              3638.0952              3784.1280
 Red. masses --      1.0915                 1.0440                 1.1069
 Frc consts  --      6.5938                 8.1414                 9.3389
 IR Inten    --      7.0020               146.5854                60.9118

 - Thermochemistry -
 -------------------
 Temperature   298.150 Kelvin.  Pressure   1.00000 Atm.
 Atom     1 has atomic number  7 and mass  14.00307

 Molecular mass:   181.08513 amu.
 Principal axes and moments of inertia in atomic units:
                                 1                 2                 3
     Eigenvalues --         1102.681784       3978.833023       5048.088414
           X                   0.922059         -0.387050         -0.000000
           Y                   0.387050          0.922059          0.000000
           Z                   0.000000         -0.000000          1.000000
 This molecule is an asymmetric top.
 Rotational symmetry number  1.
 Warning -- assumption of classical behavior for rotation
           may cause significant error
 Rotational temperatures (Kelvin)      0.07855     0.02177     0.01716
 Rotational constants (GHZ):           1.63668     0.45359     0.35751
    1 imaginary frequencies ignored.
 Zero-point vibrational energy     505587.0 (Joules/Mol)
                                  120.83820 (Kcal/Mol)
 Warning -- explicit consideration of  18 degrees of freedom as
           vibrations may cause significant error
 Vibrational temperatures:     47.15    96.10   105.70   152.91   177.68
          (Kelvin)            236.87   303.43   367.12   369.36   421.48
                              421.59   502.69   553.30   618.60   652.02
                              766.41   825.56   839.25   905.92   962.16
                             1092.64  1120.67  1171.26  1176.19  1231.57
                             1292.91  1402.21  1434.44  1459.21  1506.68
                             1525.26  1574.98  1638.27  1643.58  1707.14
                             1815.72  1862.53  1866.42  1904.49  1995.40
                             2022.74  2038.74  2070.92  2081.12  2138.32
                             2147.20  2159.48  2169.22  2176.47  2207.23
                             2272.36  2360.17  2389.25  2571.17  4397.14
                             4409.79  4417.13  4466.70  4505.86  4508.28
                             4515.54  4558.55  4607.17  5234.41  5444.52

 Zero-point correction=                           0.192568 (Hartree/Particle)
 Thermal correction to Energy=                    0.205113
 Thermal correction to Enthalpy=                  0.206057
 Thermal correction to Gibbs Free Energy=         0.152668
 Sum of electronic and zero-point Energies=           -626.083564
 Sum of electronic and thermal Energies=              -626.071019
 Sum of electronic and thermal Enthalpies=            -626.070075
 Sum of electronic and thermal Free Energies=         -626.123463

                     E (Thermal)             CV                S
                      KCal/Mol        Cal/Mol-Kelvin    Cal/Mol-Kelvin
 Total                  128.710             45.597            112.366
 Electronic               0.000              0.000              0.000
 Translational            0.889              2.981             41.488
 Rotational               0.889              2.981             31.471
 Vibrational            126.933             39.635             39.406
 Vibration     1          0.594              1.983              5.654
 Vibration     2          0.598              1.970              4.246
 Vibration     3          0.599              1.967              4.058
 Vibration     4          0.605              1.944              3.336
 Vibration     5          0.610              1.929              3.045
 Vibration     6          0.623              1.886              2.496
 Vibration     7          0.643              1.824              2.036
 Vibration     8          0.666              1.754              1.695
 Vibration     9          0.666              1.751              1.684
 Vibration    10          0.688              1.687              1.457
 Vibration    11          0.688              1.687              1.456
 Vibration    12          0.727              1.577              1.169
 Vibration    13          0.753              1.503              1.021
 Vibration    14          0.791              1.405              0.859
 Vibration    15          0.812              1.354              0.786
 Vibration    16          0.888              1.178              0.581
 Vibration    17          0.930              1.088              0.497
 Vibration    18          0.940              1.067              0.479

 Optimization completed.
    -- Stationary point found.
 Normal termination of Gaussian 16 at Wed Aug 14 20:17:29 2024.

 ----------------------------------------------------------------------
 # M062X/def2tzvp int=(grid=ultrafine) pop=nbo7 polar prop=efg volume g
 uess=read geom=check
 ----------------------------------------------------------------------

 ----------
 pyrmd1.xyz
 ----------
 Structure from the checkpoint file:  "pyrmd1_conf-1.chk"
 Charge =  0 Multiplicity = 1

 SCF Done:  E(RM062X) =  -626.203728283     A.U. after   12 cycles

  Exact polarizability:     156.217      23.561     146.248      -0.000      -0.000      74.767
 Approx polarizability:     187.743      12.674     161.902      -0.000      -0.000     101.584

 Summary of Natural Population Analysis:

                                     Natural Population
             Natural    ---------------------------------------------
  Atom No    Charge        Core      Valence    Rydberg      Total
 --------------------------------------------------------------------
    N  1   -0.77432      2.00000     5.75454    0.01979     7.77432
    C  2    0.56703      1.99999     3.40643    0.02655     5.43297
    N  3   -0.51851      1.99999     5.48576    0.03276     7.51851
    C  4    0.33715      1.99999     3.64287    0.01999     5.66285
    C  5   -0.65099      1.99999     4.64038    0.01062     6.65099
    C  6   -0.32398      1.99999     4.30634    0.01765     6.32398
    C  7    0.78467      1.99999     3.18102    0.03432     5.21533
    O  8   -0.51553      2.00000     6.49389    0.02165     8.51553
    C  9   -0.07202      1.99999     4.05620    0.01583     6.07202
    C 10   -0.62202      1.99999     4.61220    0.00983     6.62202
    O 11   -0.60945      2.00000     6.58434    0.02511     8.60945
    C 12    0.14455      1.99999     3.83344    0.02202     5.85545
    N 13   -0.50802      1.99999     5.47541    0.03262     7.50802
    H 14    0.40890      0.00000     0.58964    0.00147     0.59110
    H 15    0.40883      0.00000     0.58964    0.00153     0.59117
    H 16    0.24332      0.00000     0.75556    0.00112     0.75668
    H 17    0.22634      0.00000     0.77220    0.00146     0.77366
    H 18    0.24332      0.00000     0.75556    0.00112     0.75668
    H 19    0.18721      0.00000     0.81083    0.00196     0.81279
    H 20    0.18721      0.00000     0.81083    0.00196     0.81279
    H 21    0.21252      0.00000     0.78637    0.00111     0.78748
    H 22    0.21252      0.00000     0.78637    0.00111     0.78748
    H 23    0.21616      0.00000     0.78305    0.00078     0.78384
    H 24    0.21513      0.00000     0.78325    0.00162     0.78487
 ====================================================================
 * Total *  0.00000     25.99990    69.69612    0.30398    96.00000

 Normal termination of Gaussian 16 at Wed Aug 14 20:21:45 2024.
 Gaussian 16:  ES64L-G16RevC.01  3-Jul-2019

 --------------------------------------------------------------------
 # M062X/def2tzvp int=(grid=ultrafine) nmr=giao guess=read geom=check
 --------------------------------------------------------------------

 ----------
 pyrmd1.xyz
 ----------
 Structure from the checkpoint file:  "pyrmd1_conf-1.chk"
 Charge =  0 Multiplicity = 1

                         Standard orientation:
 ---------------------------------------------------------------------
 Center     Atomic      Atomic             Coordinates (Angstroms)
 Number     Number       Type             X           Y           Z
 ---------------------------------------------------------------------
      1          7           0        3.436499    2.340360   -0.000000
      2          6           0        2.287761    1.627394   -0.000000
      3          7           0        1.139523    2.334313    0.000000
      4          6           0       -0.005544    1.649430    0.000000
      5          6           0       -1.260299    2.473849    0.000000
      6          6           0       -0.000000    0.231948    0.000000
      7          6           0       -1.239365   -0.567556    0.000000
      8          8           0       -0.979266   -1.899391   -0.000000
      9          6           0       -2.136134   -2.760961    0.000000
     10          6           0       -1.632436   -4.190065   -0.000000
     11          8           0       -2.374518   -0.124564    0.000000
     12          6           0        1.261434   -0.382618   -0.000000
     13          7           0        2.409990    0.281772   -0.000000
     14          1           0        4.316857    1.854599   -0.000000
     15          1           0        3.392263    3.344821   -0.000000
     16          1           0       -1.878524    2.240884    0.870629
     17          1           0       -0.987839    3.529576    0.000000
     18          1           0       -1.878524    2.240884   -0.870629
     19          1           0       -2.744590   -2.537836   -0.881786
     20          1           0       -2.744590   -2.537836    0.881786
     21          1           0       -1.024050   -4.388655   -0.886778
     22          1           0       -1.024050   -4.388655    0.886778
     23          1           0       -2.478892   -4.883321   -0.000000
     24          1           0        1.327617   -1.466469   -0.000000
 ---------------------------------------------------------------------

 SCF Done:  E(RM062X) =  -626.203728283     A.U. after    1 cycles

      1  N    Isotropic =   160.2075   Anisotropy =   119.8095

      2  C    Isotropic =     1.9716   Anisotropy =   160.3640

      3  N    Isotropic =   -52.7222   Anisotropy =   427.7337

      4  C    Isotropic =   -17.4445   Anisotropy =   246.4373

      5  C    Isotropic =   155.8841   Anisotropy =    35.9051

      6  C    Isotropic =    54.6265   Anisotropy =   164.8996

      7  C    Isotropic =     1.0231   Anisotropy =   105.5606

      8  O    Isotropic =   112.8459   Anisotropy =   190.5552

      9  C    Isotropic =   121.2531   Anisotropy =    60.5667

     10  C    Isotropic =   171.3922   Anisotropy =    22.5608

     11  O    Isotropic =  -147.6169   Anisotropy =   683.5470

     12  C    Isotropic =    -1.9061   Anisotropy =   219.3824

     13  N    Isotropic =   -44.1674   Anisotropy =   468.5601

     14  H    Isotropic =    26.7837   Anisotropy =     9.5317

     15  H    Isotropic =    26.7817   Anisotropy =     9.3631

     16  H    Isotropic =    28.8696   Anisotropy =     5.7018

     17  H    Isotropic =    29.5267   Anisotropy =     7.2570

     18  H    Isotropic =    28.8696   Anisotropy =     5.7018

     19  H    Isotropic =    27.7699   Anisotropy =     5.6875

     20  H    Isotropic =    27.7699   Anisotropy =     5.6875

     21  H    Isotropic =    30.4597   Anisotropy =     8.0423

     22  H    Isotropic =    30.4597   Anisotropy =     8.0423

     23  H    Isotropic =    30.7040   Anisotropy =    10.0545

     24  H    Isotropic =    22.1104   Anisotropy =     9.8523

 The electronic state is 1-A'.
 Alpha  occ. eigenvalues --  -19.66901 -19.61306 -14.77382 -14.75244 -14.75054
 Alpha  occ. eigenvalues --  -10.67639 -10.65636 -10.61073 -10.59822 -10.59623
 Alpha  occ. eigenvalues --  -10.55571 -10.53638 -10.52833  -1.22905  -1.13538
 Alpha  occ. eigenvalues --   -1.12182  -1.02217  -1.00311  -0.90401  -0.86810
 Alpha  occ. eigenvalues --   -0.82351  -0.76191  -0.73173  -0.71140  -0.66209
 Alpha  occ. eigenvalues --   -0.63512  -0.60993  -0.60127  -0.57700  -0.56697
 Alpha  occ. eigenvalues --   -0.54965  -0.53283  -0.50068  -0.49833  -0.48356
 Alpha  occ. eigenvalues --   -0.47497  -0.46520  -0.46209  -0.44829  -0.43107
 Alpha  occ. eigenvalues --   -0.42552  -0.39959  -0.39871  -0.37447  -0.37048
 Alpha  occ. eigenvalues --   -0.35300  -0.32293  -0.29214
 Alpha virt. eigenvalues --   -0.01134  -0.00294   0.06504   0.06860   0.09020
 Alpha virt. eigenvalues --    0.09030   0.10634   0.11213   0.12467   0.13216
 Alpha virt. eigenvalues --    0.13420   0.14028   0.14964   0.15647   0.16054

 Mulliken charges:
               1
     1  N   -0.502766
     2  C    0.411912
     3  N   -0.297671
     4  C    0.165322
     5  C   -0.456378
     6  C   -0.068295
     7  C    0.366570
     8  O   -0.286228
     9  C   -0.099678
    10  C   -0.413444
    11  O   -0.375023
    12  C   -0.063585
    13  N   -0.287320
    14  H    0.267166
    15  H    0.266773
    16  H    0.167612
    17  H    0.147528
    18  H    0.167612
    19  H    0.142867
    20  H    0.142867
    21  H    0.145404
    22  H    0.145404
    23  H    0.141531
    24  H    0.171820
 Sum of Mulliken charges =   0.00000

 Dipole moment (field-independent basis, Debye):
    X=              1.5675    Y=             -0.5082    Z=             -0.0000  Tot=              1.6478
 Quadrupole moment (field-independent basis, Debye-Ang):
   XX=            -70.7659   YY=            -65.3703   ZZ=            -77.0965
   XY=             11.1262   XZ=              0.0000   YZ=             -0.0000

 Normal termination of Gaussian 16 at Wed Aug 14 20:23:55 2024.
