 Gaussian 16, Revision C.01,

 ----------------------------------------------------------------------
 # B3LYP/6-31G(d,p) symmetry=loose empiricaldispersion=GD3BJ int=(grid=
 ultrafine) opt freq=noraman
 ----------------------------------------------------------------------

 ----------
 pyrmd1.xyz
 ----------
 Symbolic Z-matrix:
 Charge =  0 Multiplicity = 1

 SCF Done:  E(RB3LYP) =  -626.269659779     A.U. after   15 cycles
 SCF Done:  E(RB3LYP) =  -626.275901654     A.U. after   12 cycles
 SCF Done:  E(RB3LYP) =  -626.276450141     A.U. after   11 cycles
 SCF Done:  E(RB3LYP) =  -626.275922486     A.U. after   12 cycles
 SCF Done:  E(RB3LYP) =  -626.276533589     A.U. after   10 cycles
 SCF Done:  E(RB3LYP) =  -626.276537738     A.U. after    9 cycles
 SCF Done:  E(RB3LYP) =  -626.276538754     A.U. after    7 cycles
 Optimization completed.
    -- Stationary point found.
 Normal termination of Gaussian 16 at Wed Aug 14 20:12:30 2024.

 ----------------------------------------------------------------------
 #N Geom=AllCheck Guess=TCheck SCRF=Check GenChk RB3LYP/6-31G(d,p) Freq
 ----------------------------------------------------------------------

 Structure from the checkpoint file:  "pyrmd1_conf-2.chk"
 ----------
 pyrmd1.xyz
 ----------
 Charge =  0 Multiplicity = 1

 SCF Done:  E(RB3LYP) =  -626.276538754     A.U. after    1 cycles
 ******    1 imaginary frequencies (negative Signs) ******

                      1                      2                      3
                      A                      A                      A
 Frequencies --    -90.4420                36.7910                53.9944
 Red. masses --      1.3695                 3.6863                 3.6730
 Frc consts  --      0.0066                 0.0029                 0.0063
 IR Inten    --    220.1417                 0.1787                 5.3646

                      4                      5                      6
                      A                      A                      A
 Frequencies --     92.3892               105.4887               155.3005
 Red. masses --      4.0806                 3.8725                 2.4642
 Frc consts  --      0.0205                 0.0254                 0.0350
 IR Inten    --      2.1961                 3.9092                 1.0127

                      7                      8                      9
                      A                      A                      A
 Frequencies --    167.6889               210.6120               237.4868
 Red. masses --      1.1171                 3.3886                 1.2814
 Frc consts  --      0.0185                 0.0886                 0.0426
 IR Inten    --      2.6331                 0.4251                 1.6837

                     10                     11                     12
                      A                      A                      A
 Frequencies --    267.7946               300.5986               338.4507
 Red. masses --      5.6477                 3.9308                 3.4123
 Frc consts  --      0.2386                 0.2093                 0.2303
 IR Inten    --     12.3895                 5.5091                 0.7661

                     13                     14                     15
                      A                      A                      A
 Frequencies --    350.8061               403.0858               447.8167
 Red. masses --      2.9557                 5.9298                 3.2357
 Frc consts  --      0.2143                 0.5677                 0.3823
 IR Inten    --     19.0731                 4.6497                 6.0587

                     16                     17                     18
                      A                      A                      A
 Frequencies --    458.3131               535.1783               574.5713
 Red. masses --      3.2529                 3.3113                 1.0379
 Frc consts  --      0.4026                 0.5588                 0.2019
 IR Inten    --      4.0810                12.1889                 0.0018

                     19                     20                     21
                      A                      A                      A
 Frequencies --    581.4583               629.9425               666.8302
 Red. masses --      6.1707                 3.6580                 6.6507
 Frc consts  --      1.2292                 0.8552                 1.7424
 IR Inten    --      0.8778                 2.5040                 7.1019

                     22                     23                     24
                      A                      A                      A
 Frequencies --    760.8700               778.7147               784.7950
 Red. masses --      9.1488                 4.9695                 1.6074
 Frc consts  --      3.1206                 1.7755                 0.5833
 IR Inten    --      4.0177                 2.1837                 5.2423

                     25                     26                     27
                      A                      A                      A
 Frequencies --    817.1339               853.0618               889.9129
 Red. masses --      9.3963                 2.4233                 2.6839
 Frc consts  --      3.6965                 1.0390                 1.2523
 IR Inten    --     26.4842                 0.7535                 1.7554

                     28                     29                     30
                      A                      A                      A
 Frequencies --    974.2215               996.9288              1014.3098
 Red. masses --      3.1809                 1.4541                 1.6147
 Frc consts  --      1.7788                 0.8515                 0.9788
 IR Inten    --      0.7933                 1.7515                 8.9015

                     31                     32                     33
                      A                      A                      A
 Frequencies --   1029.2414              1060.1607              1092.9688
 Red. masses --      3.4880                 1.6281                 2.2540
 Frc consts  --      2.1770                 1.0781                 1.5864
 IR Inten    --      3.7045                 4.5092                24.8049

                     34                     35                     36
                      A                      A                      A
 Frequencies --   1120.1719              1135.2731              1202.0905
 Red. masses --      2.4133                 3.6482                 1.7982
 Frc consts  --      1.7841                 2.7703                 1.5309
 IR Inten    --     20.0276               256.2037                34.0959

                     37                     38                     39
                      A                      A                      A
 Frequencies --   1259.2380              1296.2169              1325.8119
 Red. masses --      3.1625                 4.7694                 3.1137
 Frc consts  --      2.9546                 4.7214                 3.2247
 IR Inten    --    163.7118               218.7558               333.5845

                     40                     41                     42
                      A                      A                      A
 Frequencies --   1336.6495              1387.4176              1407.4463
 Red. masses --      1.1143                 2.5866                 1.2966
 Frc consts  --      1.1730                 2.9335                 1.5132
 IR Inten    --      5.7543                 7.7985                30.1901

                     43                     44                     45
                      A                      A                      A
 Frequencies --   1416.9521              1432.5723              1446.5121
 Red. masses --      1.2999                 1.3486                 1.6117
 Frc consts  --      1.5377                 1.6306                 1.9869
 IR Inten    --     17.4494                10.0396                 7.0287

                     46                     47                     48
                      A                      A                      A
 Frequencies --   1486.3347              1492.4084              1499.0391
 Red. masses --      1.0455                 1.9097                 1.0848
 Frc consts  --      1.3608                 2.5061                 1.4362
 IR Inten    --      6.5630                34.3651                39.8405

                     49                     50                     51
                      A                      A                      A
 Frequencies --   1502.1019              1508.6057              1523.5726
 Red. masses --      1.1202                 1.9458                 1.0622
 Frc consts  --      1.4892                 2.6091                 1.4527
 IR Inten    --     25.1129                52.8326                 4.6666

                     52                     53                     54
                      A                      A                      A
 Frequencies --   1578.9110              1640.4673              1660.6570
 Red. masses --      7.2468                 2.7592                 3.2004
 Frc consts  --     10.6442                 4.3749                 5.2001
 IR Inten    --    184.1669                10.2345              1024.4554

                     55                     56                     57
                      A                      A                      A
 Frequencies --   1784.2155              3055.8722              3070.0388
 Red. masses --     11.2945                 1.0362                 1.0352
 Frc consts  --     21.1842                 5.7010                 5.7484
 IR Inten    --    236.5834                18.9145                 4.2999

                     58                     59                     60
                      A                      A                      A
 Frequencies --   3083.9051              3125.0170              3133.3334
 Red. masses --      1.0586                 1.1029                 1.0987
 Frc consts  --      5.9315                 6.3460                 6.3554
 IR Inten    --     34.0219                21.9060                 4.2442

                     61                     62                     63
                      A                      A                      A
 Frequencies --   3135.3043              3155.5558              3168.4903
 Red. masses --      1.1047                 1.1060                 1.1061
 Frc consts  --      6.3982                 6.4885                 6.5425
 IR Inten    --     11.8785                25.5794                14.0788

                     64                     65                     66
                      A                      A                      A
 Frequencies --   3203.3126              3637.9552              3783.9477
 Red. masses --      1.0915                 1.0440                 1.1069
 Frc consts  --      6.5989                 8.1408                 9.3380
 IR Inten    --      6.5651               148.2879                61.1042

 - Thermochemistry -
 -------------------
 Temperature   298.150 Kelvin.  Pressure   1.00000 Atm.
 Atom     1 has atomic number  7 and mass  14.00307

 Molecular mass:   181.08513 amu.
 Principal axes and moments of inertia in atomic units:
                                 1                 2                 3
     Eigenvalues --         1010.777475       3998.572095       4821.739258
           X                   0.999920         -0.011507          0.005310
           Y                   0.011508          0.999934         -0.000232
           Z                  -0.005307          0.000293          0.999986
 This molecule is an asymmetric top.
 Rotational symmetry number  1.
 Warning -- assumption of classical behavior for rotation
           may cause significant error
 Rotational temperatures (Kelvin)      0.08569     0.02166     0.01796
 Rotational constants (GHZ):           1.78550     0.45135     0.37429
    1 imaginary frequencies ignored.
 Zero-point vibrational energy     506393.1 (Joules/Mol)
                                  121.03085 (Kcal/Mol)
 Warning -- explicit consideration of  18 degrees of freedom as
           vibrations may cause significant error
 Vibrational temperatures:     52.93    77.69   132.93   151.77   223.44
          (Kelvin)            241.27   303.02   341.69   385.30   432.49
                              486.96   504.73   579.95   644.31   659.41
                              770.00   826.68   836.59   906.35   959.42
                             1094.72  1120.40  1129.14  1175.67  1227.37
                             1280.39  1401.69  1434.36  1459.37  1480.85
                             1525.33  1572.54  1611.68  1633.40  1729.54
                             1811.76  1864.97  1907.55  1923.14  1996.18
                             2025.00  2038.68  2061.15  2081.21  2138.50
                             2147.24  2156.78  2161.19  2170.55  2192.08
                             2271.70  2360.27  2389.32  2567.09  4396.72
                             4417.10  4437.05  4496.20  4508.17  4511.00
                             4540.14  4558.75  4608.85  5234.21  5444.26

 Zero-point correction=                           0.192875 (Hartree/Particle)
 Thermal correction to Energy=                    0.205259
 Thermal correction to Enthalpy=                  0.206203
 Thermal correction to Gibbs Free Energy=         0.153377
 Sum of electronic and zero-point Energies=           -626.083664
 Sum of electronic and thermal Energies=              -626.071280
 Sum of electronic and thermal Enthalpies=            -626.070336
 Sum of electronic and thermal Free Energies=         -626.123162

                     E (Thermal)             CV                S
                      KCal/Mol        Cal/Mol-Kelvin    Cal/Mol-Kelvin
 Total                  128.802             45.450            111.183
 Electronic               0.000              0.000              0.000
 Translational            0.889              2.981             41.488
 Rotational               0.889              2.981             31.344
 Vibrational            127.024             39.488             38.350
 Vibration     1          0.594              1.982              5.425
 Vibration     2          0.596              1.976              4.665
 Vibration     3          0.602              1.955              3.609
 Vibration     4          0.605              1.945              3.350
 Vibration     5          0.620              1.897              2.606
 Vibration     6          0.624              1.882              2.461
 Vibration     7          0.643              1.825              2.038
 Vibration     8          0.656              1.783              1.822
 Vibration     9          0.673              1.732              1.610
 Vibration    10          0.693              1.673              1.414
 Vibration    11          0.719              1.599              1.219
 Vibration    12          0.728              1.574              1.163
 Vibration    13          0.768              1.463              0.951
 Vibration    14          0.807              1.366              0.802
 Vibration    15          0.816              1.343              0.771
 Vibration    16          0.890              1.172              0.576
 Vibration    17          0.931              1.086              0.496
 Vibration    18          0.938              1.071              0.483

                           ! Non-Optimized Parameters !
 Normal termination of Gaussian 16 at Wed Aug 14 20:14:08 2024.

 ----------------------------------------------------------------------
 # M062X/def2tzvp int=(grid=ultrafine) pop=nbo7 polar prop=efg volume g
 uess=read geom=check
 ----------------------------------------------------------------------

 ----------
 pyrmd1.xyz
 ----------
 Structure from the checkpoint file:  "pyrmd1_conf-2.chk"
 Charge =  0 Multiplicity = 1

 SCF Done:  E(RM062X) =  -626.203599500     A.U. after   12 cycles

  Exact polarizability:     175.896       7.382     123.120      -3.967       0.986      77.273
 Approx polarizability:     188.392      12.040     161.411      -6.681       1.606     102.257

 Summary of Natural Population Analysis:

                                     Natural Population
             Natural    ---------------------------------------------
  Atom No    Charge        Core      Valence    Rydberg      Total
 --------------------------------------------------------------------
    N  1   -0.77407      2.00000     5.75428    0.01979     7.77407
    C  2    0.56722      1.99999     3.40625    0.02654     5.43278
    N  3   -0.51868      1.99999     5.48591    0.03278     7.51868
    C  4    0.33763      1.99999     3.64239    0.01998     5.66237
    C  5   -0.65085      1.99999     4.64021    0.01065     6.65085
    C  6   -0.32512      1.99999     4.30724    0.01789     6.32512
    C  7    0.78411      1.99999     3.18069    0.03521     5.21589
    O  8   -0.51277      2.00000     6.49161    0.02117     8.51277
    C  9   -0.07570      1.99999     4.05983    0.01588     6.07570
    C 10   -0.63398      1.99999     4.62468    0.00931     6.63398
    O 11   -0.61560      2.00000     6.59027    0.02533     8.61560
    C 12    0.14564      1.99999     3.83240    0.02197     5.85436
    N 13   -0.50795      1.99999     5.47533    0.03263     7.50795
    H 14    0.40896      0.00000     0.58957    0.00147     0.59104
    H 15    0.40885      0.00000     0.58962    0.00153     0.59115
    H 16    0.24318      0.00000     0.75570    0.00113     0.75682
    H 17    0.22636      0.00000     0.77217    0.00147     0.77364
    H 18    0.24308      0.00000     0.75580    0.00112     0.75692
    H 19    0.19777      0.00000     0.80000    0.00223     0.80223
    H 20    0.18643      0.00000     0.81182    0.00175     0.81357
    H 21    0.22381      0.00000     0.77507    0.00112     0.77619
    H 22    0.21016      0.00000     0.78867    0.00117     0.78984
    H 23    0.21601      0.00000     0.78311    0.00088     0.78399
    H 24    0.21552      0.00000     0.78291    0.00157     0.78448
 ====================================================================
 * Total *  0.00000     25.99990    69.69554    0.30456    96.00000

 Normal termination of Gaussian 16 at Wed Aug 14 20:20:01 2024.
 Gaussian 16:  ES64L-G16RevC.01  3-Jul-2019

 --------------------------------------------------------------------
 # M062X/def2tzvp int=(grid=ultrafine) nmr=giao guess=read geom=check
 --------------------------------------------------------------------

 ----------
 pyrmd1.xyz
 ----------
 Structure from the checkpoint file:  "pyrmd1_conf-2.chk"
 Charge =  0 Multiplicity = 1

                         Standard orientation:
 ---------------------------------------------------------------------
 Center     Atomic      Atomic             Coordinates (Angstroms)
 Number     Number       Type             X           Y           Z
 ---------------------------------------------------------------------
      1          7           0       -4.089112   -0.821996    0.187610
      2          6           0       -2.770223   -0.544056    0.083868
      3          7           0       -2.424629    0.758988    0.113808
      4          6           0       -1.127636    1.054836    0.012552
      5          6           0       -0.786566    2.516470    0.050566
      6          6           0       -0.160047    0.027365   -0.121595
      7          6           0        1.283504    0.305678   -0.234797
      8          8           0        2.006295   -0.837267   -0.362473
      9          6           0        3.438716   -0.677065   -0.455723
     10          6           0        4.067264   -0.525037    0.919781
     11          8           0        1.796367    1.411484   -0.221358
     12          6           0       -0.650873   -1.287278   -0.138204
     13          7           0       -1.936336   -1.600162   -0.038419
     14          1           0       -4.392763   -1.780366    0.168900
     15          1           0       -4.745661   -0.066047    0.279380
     16          1           0       -0.256226    2.815938   -0.856888
     17          1           0       -1.707580    3.089925    0.158324
     18          1           0       -0.104120    2.734834    0.875856
     19          1           0        3.657058    0.188367   -1.085353
     20          1           0        3.780288   -1.586206   -0.955473
     21          1           0        3.725380    0.397778    1.393131
     22          1           0        3.806250   -1.372084    1.560596
     23          1           0        5.157538   -0.483634    0.829322
     24          1           0        0.044246   -2.115522   -0.236823
 ---------------------------------------------------------------------

 SCF Done:  E(RM062X) =  -626.203599500     A.U. after    1 cycles

      1  N    Isotropic =   160.2270   Anisotropy =   119.5873

      2  C    Isotropic =     2.0648   Anisotropy =   160.6735

      3  N    Isotropic =   -52.7813   Anisotropy =   427.2066

      4  C    Isotropic =   -17.5478   Anisotropy =   246.5173

      5  C    Isotropic =   155.6680   Anisotropy =    35.9969

      6  C    Isotropic =    54.0633   Anisotropy =   164.4278

      7  C    Isotropic =     1.1011   Anisotropy =   106.1432

      8  O    Isotropic =   113.2898   Anisotropy =   172.1504

      9  C    Isotropic =   121.9952   Anisotropy =    68.1120

     10  C    Isotropic =   170.4353   Anisotropy =    24.9822

     11  O    Isotropic =  -138.9747   Anisotropy =   684.3643

     12  C    Isotropic =    -2.1860   Anisotropy =   219.3309

     13  N    Isotropic =   -44.1574   Anisotropy =   468.9190

     14  H    Isotropic =    26.7772   Anisotropy =     9.5679

     15  H    Isotropic =    26.7711   Anisotropy =     9.3565

     16  H    Isotropic =    28.8796   Anisotropy =     5.6864

     17  H    Isotropic =    29.5182   Anisotropy =     7.3094

     18  H    Isotropic =    28.8543   Anisotropy =     5.6154

     19  H    Isotropic =    26.9602   Anisotropy =     5.1274

     20  H    Isotropic =    28.1172   Anisotropy =     7.2169

     21  H    Isotropic =    30.1506   Anisotropy =     6.2735

     22  H    Isotropic =    30.7737   Anisotropy =     8.1265

     23  H    Isotropic =    30.9762   Anisotropy =    10.4251

     24  H    Isotropic =    22.1258   Anisotropy =    10.0485

 The electronic state is 1-A.
 Alpha  occ. eigenvalues --  -19.66844 -19.61341 -14.77400 -14.75249 -14.75065
 Alpha  occ. eigenvalues --  -10.67740 -10.65651 -10.61091 -10.59825 -10.59543
 Alpha  occ. eigenvalues --  -10.55574 -10.53144 -10.52855  -1.22802  -1.13556
 Alpha  occ. eigenvalues --   -1.12197  -1.02234  -1.00325  -0.90327  -0.86396
 Alpha  occ. eigenvalues --   -0.82344  -0.76395  -0.73667  -0.71401  -0.65027
 Alpha  occ. eigenvalues --   -0.63536  -0.61288  -0.60489  -0.57111  -0.55971
 Alpha  occ. eigenvalues --   -0.54459  -0.52742  -0.52064  -0.50010  -0.48257
 Alpha  occ. eigenvalues --   -0.47459  -0.46591  -0.45338  -0.44879  -0.44385
 Alpha  occ. eigenvalues --   -0.41212  -0.39927  -0.39800  -0.37337  -0.37064
 Alpha  occ. eigenvalues --   -0.35337  -0.32300  -0.29236
 Alpha virt. eigenvalues --   -0.01189  -0.00299   0.06616   0.07389   0.08932
 Alpha virt. eigenvalues --    0.09385   0.10660   0.11215   0.11731   0.13025
 Alpha virt. eigenvalues --    0.13560   0.14623   0.15314   0.15606   0.16135

 Mulliken charges:
               1
     1  N   -0.502530
     2  C    0.411806
     3  N   -0.297864
     4  C    0.164825
     5  C   -0.455068
     6  C   -0.078926
     7  C    0.379065
     8  O   -0.290146
     9  C   -0.097993
    10  C   -0.432410
    11  O   -0.381105
    12  C   -0.061587
    13  N   -0.287251
    14  H    0.267267
    15  H    0.266804
    16  H    0.167637
    17  H    0.147651
    18  H    0.166777
    19  H    0.153088
    20  H    0.139294
    21  H    0.168474
    22  H    0.142464
    23  H    0.139892
    24  H    0.169836
 Sum of Mulliken charges =  -0.00000

 Dipole moment (field-independent basis, Debye):
    X=             -0.7901    Y=             -1.2515    Z=              0.1681  Tot=              1.4896
 Quadrupole moment (field-independent basis, Debye-Ang):
   XX=            -57.1916   YY=            -78.7042   ZZ=            -77.2729
   XY=             -2.3220   XZ=             -1.2141   YZ=              0.2502

 Normal termination of Gaussian 16 at Wed Aug 14 20:22:26 2024.
