 Gaussian 16, Revision C.01,

 ----------------------------------------------------------------------
 # B3LYP/6-31G(d,p) symmetry=loose empiricaldispersion=GD3BJ int=(grid=
 ultrafine) opt freq=noraman
 ----------------------------------------------------------------------

 ----------
 pyrmd1.xyz
 ----------
 Symbolic Z-matrix:
 Charge =  0 Multiplicity = 1

 SCF Done:  E(RB3LYP) =  -626.268895682     A.U. after   15 cycles
 SCF Done:  E(RB3LYP) =  -626.274102236     A.U. after   12 cycles
 SCF Done:  E(RB3LYP) =  -626.273358844     A.U. after   13 cycles
 SCF Done:  E(RB3LYP) =  -626.274695171     A.U. after   12 cycles
 SCF Done:  E(RB3LYP) =  -626.274805183     A.U. after   10 cycles
 SCF Done:  E(RB3LYP) =  -626.274833093     A.U. after   10 cycles
 SCF Done:  E(RB3LYP) =  -626.274844122     A.U. after   10 cycles
 SCF Done:  E(RB3LYP) =  -626.274848619     A.U. after   10 cycles
 SCF Done:  E(RB3LYP) =  -626.274849341     A.U. after    8 cycles
 SCF Done:  E(RB3LYP) =  -626.274849600     A.U. after    8 cycles
 Optimization completed.
    -- Stationary point found.
 Normal termination of Gaussian 16 at Wed Aug 14 20:21:23 2024.

 ----------------------------------------------------------------------
 #N Geom=AllCheck Guess=TCheck SCRF=Check GenChk RB3LYP/6-31G(d,p) Freq
 ----------------------------------------------------------------------

 Structure from the checkpoint file:  "pyrmd1_conf-3.chk"
 ----------
 pyrmd1.xyz
 ----------
 Charge =  0 Multiplicity = 1

 SCF Done:  E(RB3LYP) =  -626.274849600     A.U. after    1 cycles
 ******    1 imaginary frequencies (negative Signs) ******

                      1                      2                      3
                      A                      A                      A
 Frequencies --    -99.1840                26.9507                65.5431
 Red. masses --      1.3499                 3.5441                 2.8405
 Frc consts  --      0.0078                 0.0015                 0.0072
 IR Inten    --    221.8710                 2.4068                 4.1205

                      4                      5                      6
                      A                      A                      A
 Frequencies --     80.1806               105.6120               128.3661
 Red. masses --      4.0558                 3.8123                 2.4824
 Frc consts  --      0.0154                 0.0251                 0.0241
 IR Inten    --      3.1004                 1.0003                 1.3088

                      7                      8                      9
                      A                      A                      A
 Frequencies --    189.7055               213.7059               258.5834
 Red. masses --      1.3114                 2.1893                 1.4546
 Frc consts  --      0.0278                 0.0589                 0.0573
 IR Inten    --      2.2073                 0.5113                 3.3666

                     10                     11                     12
                      A                      A                      A
 Frequencies --    259.2956               300.5519               310.4900
 Red. masses --      4.3161                 3.7627                 5.1515
 Frc consts  --      0.1710                 0.2003                 0.2926
 IR Inten    --      2.1160                15.7559                 4.9959

                     13                     14                     15
                      A                      A                      A
 Frequencies --    328.4777               392.2576               422.0381
 Red. masses --      2.7453                 4.9453                 3.4575
 Frc consts  --      0.1745                 0.4483                 0.3628
 IR Inten    --      7.2058                12.7530                 1.1774

                     16                     17                     18
                      A                      A                      A
 Frequencies --    458.3079               550.0387               573.7907
 Red. masses --      3.3872                 3.6740                 1.0400
 Frc consts  --      0.4192                 0.6549                 0.2017
 IR Inten    --      0.3375                12.4729                 0.0086

                     19                     20                     21
                      A                      A                      A
 Frequencies --    576.8466               628.6322               661.6777
 Red. masses --      5.9584                 3.6476                 7.5781
 Frc consts  --      1.1682                 0.8493                 1.9548
 IR Inten    --      1.0833                 2.1051                 5.5483

                     22                     23                     24
                      A                      A                      A
 Frequencies --    758.0373               780.6760               813.5137
 Red. masses --      8.4591                 5.5007                 1.2421
 Frc consts  --      2.8639                 1.9752                 0.4843
 IR Inten    --      4.3770                 5.5114                 5.3079

                     25                     26                     27
                      A                      A                      A
 Frequencies --    818.0807               858.6541               899.1263
 Red. masses --      4.9601                 6.5523                 2.5612
 Frc consts  --      1.9558                 2.8463                 1.2199
 IR Inten    --     21.9904                 3.5728                 3.8451

                     28                     29                     30
                      A                      A                      A
 Frequencies --    973.4032              1013.7493              1015.1951
 Red. masses --      3.3304                 1.4453                 1.5862
 Frc consts  --      1.8592                 0.8751                 0.9632
 IR Inten    --      2.2907                 1.6271                 6.3963

                     31                     32                     33
                      A                      A                      A
 Frequencies --   1051.9778              1061.8857              1095.4437
 Red. masses --      3.1530                 1.6083                 2.0282
 Frc consts  --      2.0558                 1.0685                 1.4340
 IR Inten    --     32.1110                 4.6831                 0.3337

                     34                     35                     36
                      A                      A                      A
 Frequencies --   1135.9333              1147.2518              1185.7327
 Red. masses --      3.5966                 3.3114                 1.5477
 Frc consts  --      2.7343                 2.5679                 1.2821
 IR Inten    --    134.0487                61.2941                 4.1548

                     37                     38                     39
                      A                      A                      A
 Frequencies --   1245.1090              1296.0929              1299.9983
 Red. masses --      3.6273                 1.1006                 4.1748
 Frc consts  --      3.3132                 1.0893                 4.1569
 IR Inten    --    158.0519                 0.6099               391.8811

                     40                     41                     42
                      A                      A                      A
 Frequencies --   1314.1938              1385.7499              1407.3300
 Red. masses --      2.7084                 1.8526                 1.5089
 Frc consts  --      2.7560                 2.0960                 1.7608
 IR Inten    --    190.0958                32.2132                33.3085

                     43                     44                     45
                      A                      A                      A
 Frequencies --   1418.1966              1438.1489              1454.6011
 Red. masses --      1.4438                 1.4485                 2.1381
 Frc consts  --      1.7109                 1.7651                 2.6654
 IR Inten    --     26.0078                 8.5846               133.7014

                     46                     47                     48
                      A                      A                      A
 Frequencies --   1491.5663              1492.0579              1501.1779
 Red. masses --      1.6322                 1.0456                 1.0398
 Frc consts  --      2.1394                 1.3714                 1.3805
 IR Inten    --     14.1064                 5.8009                 7.4730

                     49                     50                     51
                      A                      A                      A
 Frequencies --   1507.2320              1512.1261              1533.1384
 Red. masses --      2.1062                 1.0502                 1.0931
 Frc consts  --      2.8192                 1.4148                 1.5138
 IR Inten    --     69.2463                 1.0670                 3.3942

                     52                     53                     54
                      A                      A                      A
 Frequencies --   1579.3899              1640.1700              1660.1490
 Red. masses --      6.7322                 2.9055                 3.1053
 Frc consts  --      9.8943                 4.6052                 5.0425
 IR Inten    --    114.4139                20.8289              1016.6942

                     55                     56                     57
                      A                      A                      A
 Frequencies --   1782.4024              3055.9340              3068.3317
 Red. masses --     12.1804                 1.0354                 1.0581
 Frc consts  --     22.7994                 5.6970                 5.8691
 IR Inten    --    270.4538                15.3787                18.8049

                     58                     59                     60
                      A                      A                      A
 Frequencies --   3070.5071              3107.6827              3131.8223
 Red. masses --      1.0355                 1.1076                 1.1020
 Frc consts  --      5.7520                 6.3024                 6.3681
 IR Inten    --      6.9319                 5.5466                27.6234

                     61                     62                     63
                      A                      A                      A
 Frequencies --   3135.0204              3138.2306              3169.0711
 Red. masses --      1.0993                 1.1050                 1.1053
 Frc consts  --      6.3659                 6.4121                 6.5403
 IR Inten    --      5.6740                38.2610                12.0802

                     64                     65                     66
                      A                      A                      A
 Frequencies --   3195.0555              3638.1992              3784.2430
 Red. masses --      1.0917                 1.0440                 1.1069
 Frc consts  --      6.5660                 8.1418                 9.3395
 IR Inten    --      2.9026               147.4143                60.9686

 - Thermochemistry -
 -------------------
 Temperature   298.150 Kelvin.  Pressure   1.00000 Atm.
 Atom     1 has atomic number  7 and mass  14.00307

 Molecular mass:   181.08513 amu.
 Principal axes and moments of inertia in atomic units:
                                 1                 2                 3
     Eigenvalues --          929.563808       4077.369864       4973.419305
           X                   0.999937          0.011206          0.000021
           Y                  -0.011206          0.999937         -0.000033
           Z                  -0.000021          0.000033          1.000000
 This molecule is an asymmetric top.
 Rotational symmetry number  1.
 Warning -- assumption of classical behavior for rotation
           may cause significant error
 Rotational temperatures (Kelvin)      0.09318     0.02124     0.01742
 Rotational constants (GHZ):           1.94149     0.44262     0.36288
    1 imaginary frequencies ignored.
 Zero-point vibrational energy     505976.4 (Joules/Mol)
                                  120.93125 (Kcal/Mol)
 Warning -- explicit consideration of  18 degrees of freedom as
           vibrations may cause significant error
 Vibrational temperatures:     38.78    94.30   115.36   151.95   184.69
          (Kelvin)            272.94   307.48   372.04   373.07   432.43
                              446.73   472.61   564.37   607.22   659.40
                              791.38   825.56   829.95   904.46   952.01
                             1090.65  1123.22  1170.46  1177.04  1235.41
                             1293.64  1400.51  1458.56  1460.64  1513.56
                             1527.82  1576.10  1634.35  1650.64  1706.00
                             1791.43  1864.79  1870.41  1890.83  1993.78
                             2024.83  2040.47  2069.18  2092.85  2146.03
                             2146.74  2159.86  2168.57  2175.61  2205.84
                             2272.39  2359.84  2388.58  2564.48  4396.81
                             4414.64  4417.77  4471.26  4505.99  4510.60
                             4515.21  4559.59  4596.97  5234.56  5444.68

 Zero-point correction=                           0.192716 (Hartree/Particle)
 Thermal correction to Energy=                    0.205182
 Thermal correction to Enthalpy=                  0.206126
 Thermal correction to Gibbs Free Energy=         0.152919
 Sum of electronic and zero-point Energies=           -626.082133
 Sum of electronic and thermal Energies=              -626.069668
 Sum of electronic and thermal Enthalpies=            -626.068724
 Sum of electronic and thermal Free Energies=         -626.121930

                     E (Thermal)             CV                S
                      KCal/Mol        Cal/Mol-Kelvin    Cal/Mol-Kelvin
 Total                  128.754             45.499            111.983
 Electronic               0.000              0.000              0.000
 Translational            0.889              2.981             41.488
 Rotational               0.889              2.981             31.311
 Vibrational            126.976             39.537             39.184
 Vibration     1          0.593              1.984              6.042
 Vibration     2          0.597              1.971              4.283
 Vibration     3          0.600              1.963              3.886
 Vibration     4          0.605              1.945              3.348
 Vibration     5          0.611              1.925              2.970
 Vibration     6          0.633              1.854              2.231
 Vibration     7          0.644              1.820              2.012
 Vibration     8          0.667              1.748              1.671
 Vibration     9          0.668              1.747              1.667
 Vibration    10          0.693              1.673              1.414
 Vibration    11          0.699              1.654              1.360
 Vibration    12          0.712              1.619              1.268
 Vibration    13          0.760              1.487              0.992
 Vibration    14          0.784              1.422              0.885
 Vibration    15          0.816              1.343              0.771
 Vibration    16          0.905              1.140              0.544
 Vibration    17          0.930              1.088              0.497
 Vibration    18          0.933              1.081              0.491

                           ! Non-Optimized Parameters !
 Normal termination of Gaussian 16 at Wed Aug 14 20:22:55 2024.

 ----------------------------------------------------------------------
 # M062X/def2tzvp int=(grid=ultrafine) pop=nbo7 polar prop=efg volume g
 uess=read geom=check
 ----------------------------------------------------------------------

 ----------
 pyrmd1.xyz
 ----------
 Structure from the checkpoint file:  "pyrmd1_conf-3.chk"
 Charge =  0 Multiplicity = 1

 SCF Done:  E(RM062X) =  -626.202006537     A.U. after   12 cycles

  Exact polarizability:     179.327      -2.690     122.678       0.008       0.010      74.307
 Approx polarizability:     189.163      -7.347     160.019      -0.001       0.029     101.586

 Summary of Natural Population Analysis:

                                     Natural Population
             Natural    ---------------------------------------------
  Atom No    Charge        Core      Valence    Rydberg      Total
 --------------------------------------------------------------------
    N  1   -0.77441      2.00000     5.75463    0.01978     7.77441
    C  2    0.56676      1.99999     3.40671    0.02654     5.43324
    N  3   -0.52091      1.99999     5.48815    0.03277     7.52091
    C  4    0.32796      1.99999     3.65227    0.01978     5.67204
    C  5   -0.64717      1.99999     4.63681    0.01037     6.64717
    C  6   -0.32474      1.99999     4.30708    0.01767     6.32474
    C  7    0.78506      1.99999     3.18039    0.03456     5.21494
    O  8   -0.51385      2.00000     6.49144    0.02241     8.51385
    C  9   -0.07297      1.99999     4.05702    0.01595     6.07297
    C 10   -0.62267      1.99999     4.61293    0.00975     6.62267
    O 11   -0.61049      2.00000     6.58564    0.02486     8.61049
    C 12    0.15198      1.99999     3.82566    0.02236     5.84802
    N 13   -0.50457      1.99999     5.47212    0.03246     7.50457
    H 14    0.40835      0.00000     0.59012    0.00153     0.59165
    H 15    0.40940      0.00000     0.58914    0.00146     0.59060
    H 16    0.23607      0.00000     0.76276    0.00117     0.76393
    H 17    0.22949      0.00000     0.76905    0.00146     0.77051
    H 18    0.23610      0.00000     0.76272    0.00117     0.76390
    H 19    0.18912      0.00000     0.80892    0.00195     0.81088
    H 20    0.18893      0.00000     0.80912    0.00195     0.81107
    H 21    0.21177      0.00000     0.78712    0.00112     0.78823
    H 22    0.21177      0.00000     0.78712    0.00111     0.78823
    H 23    0.21750      0.00000     0.78173    0.00077     0.78250
    H 24    0.22152      0.00000     0.77687    0.00162     0.77848
 ====================================================================
 * Total *  0.00000     25.99990    69.69550    0.30460    96.00000

 Normal termination of Gaussian 16 at Wed Aug 14 20:28:36 2024.
 Gaussian 16:  ES64L-G16RevC.01  3-Jul-2019

 --------------------------------------------------------------------
 # M062X/def2tzvp int=(grid=ultrafine) nmr=giao guess=read geom=check
 --------------------------------------------------------------------

 ----------
 pyrmd1.xyz
 ----------
 Structure from the checkpoint file:  "pyrmd1_conf-3.chk"
 Charge =  0 Multiplicity = 1

                         Standard orientation:
 ---------------------------------------------------------------------
 Center     Atomic      Atomic             Coordinates (Angstroms)
 Number     Number       Type             X           Y           Z
 ---------------------------------------------------------------------
      1          7           0       -4.223280    0.384838    0.001317
      2          6           0       -2.901378    0.101178   -0.000160
      3          7           0       -2.058027    1.152368    0.000179
      4          6           0       -0.746776    0.897039    0.000341
      5          6           0        0.136331    2.114553    0.000512
      6          6           0       -0.274943   -0.438213    0.000166
      7          6           0        1.128719   -0.902612    0.000509
      8          8           0        2.035602    0.101908    0.001509
      9          6           0        3.419728   -0.310201    0.001492
     10          6           0        4.263079    0.948585   -0.002550
     11          8           0        1.453930   -2.076919   -0.000015
     12          6           0       -1.258108   -1.441051   -0.000652
     13          7           0       -2.562581   -1.207159   -0.000965
     14          1           0       -4.521548    1.344917   -0.004360
     15          1           0       -4.887233   -0.370308   -0.005144
     16          1           0        0.792345    2.121795   -0.873375
     17          1           0       -0.495717    3.002718    0.000109
     18          1           0        0.791516    2.122110    0.875027
     19          1           0        3.602743   -0.933929   -0.878485
     20          1           0        3.604137   -0.928974    0.884732
     21          1           0        4.058352    1.552638   -0.890952
     22          1           0        4.059455    1.557686    0.882652
     23          1           0        5.324937    0.685069   -0.002450
     24          1           0       -0.937948   -2.479638   -0.001369
 ---------------------------------------------------------------------

 SCF Done:  E(RM062X) =  -626.202006537     A.U. after    1 cycles

      1  N    Isotropic =   160.5264   Anisotropy =   119.4244

      2  C    Isotropic =     1.8315   Anisotropy =   159.9745

      3  N    Isotropic =   -50.1836   Anisotropy =   424.2567

      4  C    Isotropic =   -13.0413   Anisotropy =   239.3091

      5  C    Isotropic =   154.9248   Anisotropy =    35.8521

      6  C    Isotropic =    53.6313   Anisotropy =   164.9333

      7  C    Isotropic =     0.0396   Anisotropy =   101.3221

      8  O    Isotropic =    99.1287   Anisotropy =   162.8658

      9  C    Isotropic =   120.2762   Anisotropy =    62.1589

     10  C    Isotropic =   171.1028   Anisotropy =    21.7728

     11  O    Isotropic =  -120.6945   Anisotropy =   659.6996

     12  C    Isotropic =    -5.7129   Anisotropy =   225.4721

     13  N    Isotropic =   -47.4380   Anisotropy =   474.8977

     14  H    Isotropic =    26.7898   Anisotropy =     9.2174

     15  H    Isotropic =    26.7602   Anisotropy =     9.7225

     16  H    Isotropic =    28.9976   Anisotropy =     5.6093

     17  H    Isotropic =    29.5269   Anisotropy =     7.4620

     18  H    Isotropic =    28.9970   Anisotropy =     5.6054

     19  H    Isotropic =    27.6979   Anisotropy =     5.9950

     20  H    Isotropic =    27.7083   Anisotropy =     6.0225

     21  H    Isotropic =    30.4281   Anisotropy =     7.5713

     22  H    Isotropic =    30.4254   Anisotropy =     7.5712

     23  H    Isotropic =    30.6773   Anisotropy =    10.2220

     24  H    Isotropic =    21.9094   Anisotropy =     9.2566

 The electronic state is 1-A.
 Alpha  occ. eigenvalues --  -19.67176 -19.61093 -14.77371 -14.75182 -14.75110
 Alpha  occ. eigenvalues --  -10.67622 -10.65612 -10.61314 -10.59790 -10.59540
 Alpha  occ. eigenvalues --  -10.55582 -10.53877 -10.53489  -1.23071  -1.13524
 Alpha  occ. eigenvalues --   -1.12169  -1.02216  -1.00300  -0.90353  -0.86852
 Alpha  occ. eigenvalues --   -0.82839  -0.76523  -0.72472  -0.71810  -0.66316
 Alpha  occ. eigenvalues --   -0.63913  -0.60957  -0.59609  -0.57901  -0.57112
 Alpha  occ. eigenvalues --   -0.54679  -0.53306  -0.50031  -0.49894  -0.48811
 Alpha  occ. eigenvalues --   -0.48108  -0.46899  -0.46002  -0.45120  -0.43436
 Alpha  occ. eigenvalues --   -0.42052  -0.40283  -0.39719  -0.37561  -0.37150
 Alpha  occ. eigenvalues --   -0.35417  -0.32327  -0.29170
 Alpha virt. eigenvalues --   -0.01132  -0.00317   0.05704   0.06763   0.09065
 Alpha virt. eigenvalues --    0.09538   0.10406   0.11036   0.11576   0.12639
 Alpha virt. eigenvalues --    0.13573   0.14129   0.14708   0.14928   0.15499

 Mulliken charges:
               1
     1  N   -0.502694
     2  C    0.412077
     3  N   -0.301496
     4  C    0.186540
     5  C   -0.476709
     6  C   -0.088929
     7  C    0.370211
     8  O   -0.287013
     9  C   -0.105454
    10  C   -0.418990
    11  O   -0.374189
    12  C   -0.052300
    13  N   -0.286048
    14  H    0.266138
    15  H    0.267952
    16  H    0.163788
    17  H    0.153005
    18  H    0.163808
    19  H    0.146217
    20  H    0.146055
    21  H    0.145681
    22  H    0.145704
    23  H    0.145506
    24  H    0.181142
 Sum of Mulliken charges =  -0.00000

 Dipole moment (field-independent basis, Debye):
    X=             -0.2264    Y=              2.6015    Z=             -0.0172  Tot=              2.6114
 Quadrupole moment (field-independent basis, Debye-Ang):
   XX=            -55.1105   YY=            -82.6158   ZZ=            -77.1013
   XY=              0.8621   XZ=              0.0918   YZ=             -0.0100

 Normal termination of Gaussian 16 at Wed Aug 14 20:31:00 2024.
