 Gaussian 16, Revision C.01,

 ----------------------------------------------------------------------
 # B3LYP/6-31G(d,p) symmetry=loose empiricaldispersion=GD3BJ int=(grid=
 ultrafine) opt freq=noraman
 ----------------------------------------------------------------------

 ---------
 pyrz2.xyz
 ---------
 Symbolic Z-matrix:
 Charge =  0 Multiplicity = 1

 SCF Done:  E(RB3LYP) =  -1046.52124716     A.U. after   15 cycles
 SCF Done:  E(RB3LYP) =  -1046.53024986     A.U. after   13 cycles
 SCF Done:  E(RB3LYP) =  -1046.53093731     A.U. after   12 cycles
 SCF Done:  E(RB3LYP) =  -1046.53152769     A.U. after   12 cycles
 SCF Done:  E(RB3LYP) =  -1046.53160168     A.U. after   10 cycles
 SCF Done:  E(RB3LYP) =  -1046.53158038     A.U. after   10 cycles
 SCF Done:  E(RB3LYP) =  -1046.53159737     A.U. after   10 cycles
 SCF Done:  E(RB3LYP) =  -1046.53160514     A.U. after    9 cycles
 SCF Done:  E(RB3LYP) =  -1046.53160704     A.U. after    8 cycles
 Optimization completed.
    -- Stationary point found.
 Normal termination of Gaussian 16 at Wed Aug 14 20:34:18 2024.

 ----------------------------------------------------------------------
 #N Geom=AllCheck Guess=TCheck SCRF=Check GenChk RB3LYP/6-31G(d,p) Freq
 ----------------------------------------------------------------------

 Structure from the checkpoint file:  "pyrz2_conf-2.chk"
 ---------
 pyrz2.xyz
 ---------
 Charge =  0 Multiplicity = 1

 SCF Done:  E(RB3LYP) =  -1046.53160704     A.U. after    1 cycles
 ******    1 imaginary frequencies (negative Signs) ******

                      1                      2                      3
                      A                      A                      A
 Frequencies --    -21.1546                47.6748               105.4414
 Red. masses --      6.9433                 6.3660                 2.5575
 Frc consts  --      0.0018                 0.0085                 0.0168
 IR Inten    --     31.7170                 0.5009                27.3115

                      4                      5                      6
                      A                      A                      A
 Frequencies --    126.9111               146.5686               153.1085
 Red. masses --      1.1036                 1.0781                 1.5904
 Frc consts  --      0.0105                 0.0136                 0.0220
 IR Inten    --     39.9297                14.3946                71.4931

                      7                      8                      9
                      A                      A                      A
 Frequencies --    153.2155               179.9400               244.0277
 Red. masses --      4.4158                 3.9985                 4.7109
 Frc consts  --      0.0611                 0.0763                 0.1653
 IR Inten    --      4.9911                 0.7436                 0.5902

                     10                     11                     12
                      A                      A                      A
 Frequencies --    252.9435               286.7388               314.5839
 Red. masses --      3.8711                 6.1183                 5.2086
 Frc consts  --      0.1459                 0.2964                 0.3037
 IR Inten    --     30.4502                 2.4084                23.7129

                     13                     14                     15
                      A                      A                      A
 Frequencies --    354.7026               375.5519               399.8234
 Red. masses --      3.6437                 5.2437                 6.2870
 Frc consts  --      0.2701                 0.4357                 0.5921
 IR Inten    --      6.8911                 0.6763                 7.4004

                     16                     17                     18
                      A                      A                      A
 Frequencies --    487.6183               501.1320               514.5049
 Red. masses --     11.0221                 7.9186                 5.7499
 Frc consts  --      1.5441                 1.1717                 0.8968
 IR Inten    --     23.4955                 8.2022                 2.2869

                     19                     20                     21
                      A                      A                      A
 Frequencies --    581.3971               590.4952               670.1332
 Red. masses --      1.0732                 3.9387                 6.5139
 Frc consts  --      0.2137                 0.8092                 1.7235
 IR Inten    --      0.1606                 2.6271                 0.3012

                     22                     23                     24
                      A                      A                      A
 Frequencies --    699.1631               734.4120               783.5972
 Red. masses --     10.9158                 8.3403                 5.6718
 Frc consts  --      3.1438                 2.6504                 2.0519
 IR Inten    --      0.4519                 1.4715                 6.7524

                     25                     26                     27
                      A                      A                      A
 Frequencies --    792.9125               835.5706               979.2407
 Red. masses --     11.3523                 4.8774                 4.6197
 Frc consts  --      4.2052                 2.0063                 2.6100
 IR Inten    --      9.3719                 4.6798                25.4979

                     28                     29                     30
                      A                      A                      A
 Frequencies --   1014.7962              1059.3921              1060.2373
 Red. masses --      1.9960                 7.0246                 1.4797
 Frc consts  --      1.2111                 4.6450                 0.9800
 IR Inten    --    165.2968                 4.7193                 1.4261

                     31                     32                     33
                      A                      A                      A
 Frequencies --   1098.0983              1156.7087              1179.8195
 Red. masses --      1.8264                 5.3866                 1.2732
 Frc consts  --      1.2976                 4.2463                 1.0442
 IR Inten    --     20.3108               472.1054                 0.8187

                     34                     35                     36
                      A                      A                      A
 Frequencies --   1212.9784              1238.3204              1295.0161
 Red. masses --      1.6548                 4.6266                 7.9909
 Frc consts  --      1.4345                 4.1800                 7.8958
 IR Inten    --    122.5470               192.5006                24.8301

                     37                     38                     39
                      A                      A                      A
 Frequencies --   1373.8930              1405.5951              1424.5582
 Red. masses --      5.3470                 5.1380                 1.3859
 Frc consts  --      5.9466                 5.9808                 1.6571
 IR Inten    --     42.4467                43.2002                 2.5107

                     40                     41                     42
                      A                      A                      A
 Frequencies --   1474.6531              1492.6356              1492.7318
 Red. masses --      1.2481                 1.0466                 1.1747
 Frc consts  --      1.5991                 1.3739                 1.5422
 IR Inten    --     11.9210                 6.5173                22.8794

                     43                     44                     45
                      A                      A                      A
 Frequencies --   1495.0843              1508.2550              1516.3259
 Red. masses --      1.0433                 1.3604                 1.6759
 Frc consts  --      1.3740                 1.8233                 2.2704
 IR Inten    --      7.1597               102.4432                59.6775

                     46                     47                     48
                      A                      A                      A
 Frequencies --   1555.5838              1616.4826              1651.9633
 Red. masses --      4.0129                 3.1013                 3.0441
 Frc consts  --      5.7212                 4.7746                 4.8944
 IR Inten    --     54.1968                95.4545               450.7231

                     49                     50                     51
                      A                      A                      A
 Frequencies --   1824.6462              3052.4204              3070.7493
 Red. masses --     11.8687                 1.0378                 1.0289
 Frc consts  --     23.2814                 5.6971                 5.7165
 IR Inten    --    258.1351                15.4168                37.9698

                     52                     53                     54
                      A                      A                      A
 Frequencies --   3108.7984              3152.4374              3163.8477
 Red. masses --      1.1008                 1.1073                 1.1015
 Frc consts  --      6.2680                 6.4836                 6.4965
 IR Inten    --     11.5141                16.2655                 4.4731

                     55                     56                     57
                      A                      A                      A
 Frequencies --   3176.7097              3615.2796              3762.5055
 Red. masses --      1.1080                 1.0433                 1.1072
 Frc consts  --      6.5878                 8.0343                 9.2351
 IR Inten    --     14.6436               116.6351               117.5174

 - Thermochemistry -
 -------------------
 Temperature   298.150 Kelvin.  Pressure   1.00000 Atm.
 Atom     1 has atomic number 17 and mass  34.96885

 Molecular mass:   201.03050 amu.
 Principal axes and moments of inertia in atomic units:
                                 1                 2                 3
     Eigenvalues --         1128.493563       4525.224389       5631.210586
           X                   0.999575          0.029166         -0.000005
           Y                  -0.029166          0.999575         -0.000002
           Z                   0.000005          0.000002          1.000000
 This molecule is an asymmetric top.
 Rotational symmetry number  1.
 Warning -- assumption of classical behavior for rotation
           may cause significant error
 Rotational temperatures (Kelvin)      0.07675     0.01914     0.01538
 Rotational constants (GHZ):           1.59925     0.39882     0.32049
    1 imaginary frequencies ignored.
 Zero-point vibrational energy     404110.1 (Joules/Mol)
                                   96.58463 (Kcal/Mol)
 Warning -- explicit consideration of  19 degrees of freedom as
           vibrations may cause significant error
 Vibrational temperatures:     68.59   151.71   182.60   210.88   220.29
          (Kelvin)            220.44   258.89   351.10   363.93   412.55
                              452.62   510.34   540.34   575.26   701.57
                              721.02   740.26   836.50   849.59   964.17
                             1005.94  1056.66  1127.42  1140.82  1202.20
                             1408.91  1460.07  1524.23  1525.45  1579.92
                             1664.25  1697.50  1745.21  1781.67  1863.24
                             1976.73  2022.34  2049.62  2121.70  2147.57
                             2147.71  2151.09  2170.04  2181.65  2238.14
                             2325.76  2376.81  2625.26  4391.75  4418.12
                             4472.87  4535.65  4552.07  4570.58  5201.58
                             5413.41

 Zero-point correction=                           0.153917 (Hartree/Particle)
 Thermal correction to Energy=                    0.166210
 Thermal correction to Enthalpy=                  0.167154
 Thermal correction to Gibbs Free Energy=         0.114997
 Sum of electronic and zero-point Energies=          -1046.377690
 Sum of electronic and thermal Energies=             -1046.365397
 Sum of electronic and thermal Enthalpies=           -1046.364453
 Sum of electronic and thermal Free Energies=        -1046.416610

                     E (Thermal)             CV                S
                      KCal/Mol        Cal/Mol-Kelvin    Cal/Mol-Kelvin
 Total                  104.298             44.708            109.773
 Electronic               0.000              0.000              0.000
 Translational            0.889              2.981             41.799
 Rotational               0.889              2.981             31.731
 Vibrational            102.521             38.746             36.243
 Vibration     1          0.595              1.978              4.912
 Vibration     2          0.605              1.945              3.351
 Vibration     3          0.611              1.926              2.992
 Vibration     4          0.617              1.906              2.716
 Vibration     5          0.619              1.899              2.633
 Vibration     6          0.619              1.899              2.632
 Vibration     7          0.629              1.867              2.329
 Vibration     8          0.659              1.773              1.773
 Vibration     9          0.664              1.758              1.710
 Vibration    10          0.684              1.698              1.493
 Vibration    11          0.702              1.646              1.338
 Vibration    12          0.731              1.566              1.145
 Vibration    13          0.746              1.522              1.057
 Vibration    14          0.766              1.470              0.963
 Vibration    15          0.844              1.277              0.690
 Vibration    16          0.857              1.248              0.655
 Vibration    17          0.870              1.218              0.623
 Vibration    18          0.938              1.072              0.483
 Vibration    19          0.948              1.052              0.466

 Optimization completed.
    -- Stationary point found.
 Normal termination of Gaussian 16 at Wed Aug 14 20:35:38 2024.

 ----------------------------------------------------------------------
 # M062X/def2tzvp int=(grid=ultrafine) pop=nbo7 polar prop=efg volume g
 uess=read geom=check
 ----------------------------------------------------------------------

 ---------
 pyrz2.xyz
 ---------
 Structure from the checkpoint file:  "pyrz2_conf-2.chk"
 Charge =  0 Multiplicity = 1

 SCF Done:  E(RM062X) =  -1046.47655450     A.U. after   13 cycles

  Exact polarizability:     186.745       5.511     130.998       0.004       0.001      71.522
 Approx polarizability:     205.799       2.668     174.821       0.007       0.000      99.223

 Summary of Natural Population Analysis:

                                     Natural Population
             Natural    ---------------------------------------------
  Atom No    Charge        Core      Valence    Rydberg      Total
 --------------------------------------------------------------------
   Cl  1    0.00485      9.99998     6.97903    0.01614    16.99515
    C  2    0.21403      1.99999     3.75332    0.03267     5.78597
    C  3    0.10347      1.99999     3.87517    0.02136     5.89653
    C  4   -0.63960      1.99999     4.62947    0.01013     6.63960
    N  5   -0.30773      1.99999     5.27598    0.03176     7.30773
    C  6   -0.04627      1.99999     4.02316    0.02312     6.04627
    C  7    0.75841      1.99999     3.20601    0.03559     5.24159
    O  8   -0.53579      2.00000     6.51558    0.02022     8.53579
    C  9   -0.25961      1.99999     4.24428    0.01534     6.25961
    O 10   -0.55841      2.00000     6.53270    0.02571     8.55841
    C 11    0.38637      1.99999     3.59065    0.02299     5.61363
    N 12   -0.77924      2.00000     5.75937    0.01987     7.77924
    N 13   -0.45835      1.99999     5.41893    0.03943     7.45835
    H 14    0.23983      0.00000     0.75891    0.00126     0.76017
    H 15    0.22738      0.00000     0.77143    0.00119     0.77262
    H 16    0.22738      0.00000     0.77144    0.00119     0.77262
    H 17    0.19016      0.00000     0.80866    0.00118     0.80984
    H 18    0.19680      0.00000     0.80166    0.00153     0.80320
    H 19    0.19681      0.00000     0.80166    0.00153     0.80319
    H 20    0.40891      0.00000     0.58912    0.00197     0.59109
    H 21    0.43060      0.00000     0.56800    0.00140     0.56940
 ====================================================================
 * Total *  0.00000     33.99989    69.67455    0.32556   104.00000

 Normal termination of Gaussian 16 at Wed Aug 14 20:40:47 2024.
 Gaussian 16:  ES64L-G16RevC.01  3-Jul-2019

 --------------------------------------------------------------------
 # M062X/def2tzvp int=(grid=ultrafine) nmr=giao guess=read geom=check
 --------------------------------------------------------------------

 ---------
 pyrz2.xyz
 ---------
 Structure from the checkpoint file:  "pyrz2_conf-2.chk"
 Charge =  0 Multiplicity = 1

                         Standard orientation:
 ---------------------------------------------------------------------
 Center     Atomic      Atomic             Coordinates (Angstroms)
 Number     Number       Type             X           Y           Z
 ---------------------------------------------------------------------
      1         17           0        3.630263   -0.651064    0.000134
      2          6           0        1.902857   -0.314544   -0.000018
      3          6           0        1.461569    1.027931    0.000028
      4          6           0        2.386041    2.210213    0.000196
      5          7           0        0.150246    1.235916   -0.000033
      6          6           0       -0.709603    0.210230   -0.000134
      7          6           0       -2.143661    0.617078   -0.000177
      8          8           0       -2.994137   -0.455798    0.000488
      9          6           0       -4.390730   -0.112887    0.000477
     10          8           0       -2.546910    1.756257   -0.000640
     11          6           0       -0.226540   -1.131793   -0.000207
     12          7           0       -0.998975   -2.240123   -0.000573
     13          7           0        1.107666   -1.353493   -0.000116
     14          1           0        1.787263    3.121431    0.000188
     15          1           0        3.037492    2.207821   -0.879813
     16          1           0        3.037305    2.207714    0.880344
     17          1           0       -4.926968   -1.061330    0.001071
     18          1           0       -4.638865    0.471203   -0.888014
     19          1           0       -4.638638    0.472192    0.888379
     20          1           0       -0.534428   -3.133109    0.000379
     21          1           0       -2.001417   -2.154971    0.000466
 ---------------------------------------------------------------------

 SCF Done:  E(RM062X) =  -1046.47655450     A.U. after    1 cycles

      1  Cl   Isotropic =   602.7922   Anisotropy =   523.2530

      2  C    Isotropic =     6.1573   Anisotropy =   113.3190

      3  C    Isotropic =    22.8935   Anisotropy =   166.4493

      4  C    Isotropic =   162.2602   Anisotropy =    35.8596

      5  N    Isotropic =  -203.8982   Anisotropy =   695.8615

      6  C    Isotropic =    46.0365   Anisotropy =   131.1985

      7  C    Isotropic =     4.3255   Anisotropy =    85.8297

      8  O    Isotropic =   135.8036   Anisotropy =   181.5987

      9  C    Isotropic =   130.9604   Anisotropy =    70.4139

     10  O    Isotropic =  -160.0271   Anisotropy =   720.3953

     11  C    Isotropic =    12.5036   Anisotropy =   172.4607

     12  N    Isotropic =   166.0080   Anisotropy =    83.0952

     13  N    Isotropic =   -92.2171   Anisotropy =   466.8297

     14  H    Isotropic =    29.1973   Anisotropy =     8.6972

     15  H    Isotropic =    29.3333   Anisotropy =     6.3131

     16  H    Isotropic =    29.3334   Anisotropy =     6.3130

     17  H    Isotropic =    28.2102   Anisotropy =     7.4817

     18  H    Isotropic =    27.9176   Anisotropy =     8.2337

     19  H    Isotropic =    27.9174   Anisotropy =     8.2336

     20  H    Isotropic =    26.8496   Anisotropy =    10.1152

     21  H    Isotropic =    24.9577   Anisotropy =    13.6791

 The electronic state is 1-A.
 Alpha  occ. eigenvalues -- -102.65572 -19.68872 -19.62245 -14.77790 -14.77762
 Alpha  occ. eigenvalues --  -14.77751 -10.68468 -10.65638 -10.65272 -10.60398
 Alpha  occ. eigenvalues --  -10.60142 -10.59822 -10.53871  -9.81830  -7.54017
 Alpha  occ. eigenvalues --   -7.53527  -7.53483  -1.24291  -1.14852  -1.12780
 Alpha  occ. eigenvalues --   -1.05632  -1.02600  -0.95437  -0.89190  -0.84252
 Alpha  occ. eigenvalues --   -0.80232  -0.75614  -0.73436  -0.67981  -0.65425
 Alpha  occ. eigenvalues --   -0.62607  -0.60732  -0.58155  -0.57199  -0.56108
 Alpha  occ. eigenvalues --   -0.54436  -0.52647  -0.51109  -0.49033  -0.47892
 Alpha  occ. eigenvalues --   -0.47402  -0.46224  -0.44805  -0.43726  -0.41885
 Alpha  occ. eigenvalues --   -0.40888  -0.39022  -0.38743  -0.36549  -0.36282
 Alpha  occ. eigenvalues --   -0.33554  -0.28316
 Alpha virt. eigenvalues --   -0.04345   0.00613   0.05809   0.06869   0.07316
 Alpha virt. eigenvalues --    0.08032   0.08318   0.10446   0.10984   0.12569
 Alpha virt. eigenvalues --    0.14715   0.15044   0.15547   0.16274   0.17123

 Mulliken charges:
               1
     1  Cl  -0.057639
     2  C    0.090895
     3  C    0.103095
     4  C   -0.491981
     5  N   -0.174550
     6  C   -0.040369
     7  C    0.371174
     8  O   -0.341415
     9  C   -0.246379
    10  O   -0.306376
    11  C    0.346649
    12  N   -0.516440
    13  N   -0.231165
    14  H    0.166402
    15  H    0.160675
    16  H    0.160672
    17  H    0.139969
    18  H    0.160215
    19  H    0.160217
    20  H    0.261850
    21  H    0.284504
 Sum of Mulliken charges =  -0.00000

 Dipole moment (field-independent basis, Debye):
    X=             -2.0221    Y=             -2.8049    Z=              0.0034  Tot=              3.4578
 Quadrupole moment (field-independent basis, Debye-Ang):
   XX=            -71.0322   YY=            -82.3337   ZZ=            -82.1177
   XY=             13.4096   XZ=             -0.0064   YZ=             -0.0050

 Normal termination of Gaussian 16 at Wed Aug 14 20:42:45 2024.
