 Gaussian 16, Revision C.01,

 ----------------------------------------------------------------------
 # B3LYP/6-31G(d,p) symmetry=loose empiricaldispersion=GD3BJ int=(grid=
 ultrafine) opt freq=noraman
 ----------------------------------------------------------------------

 ----------
 pyrmd1.xyz
 ----------
 Symbolic Z-matrix:
 Charge =  0 Multiplicity = 1

 SCF Done:  E(RB3LYP) =  -626.268267551     A.U. after   15 cycles
 SCF Done:  E(RB3LYP) =  -626.274010580     A.U. after   13 cycles
 SCF Done:  E(RB3LYP) =  -626.272780031     A.U. after   13 cycles
 SCF Done:  E(RB3LYP) =  -626.274946872     A.U. after   12 cycles
 SCF Done:  E(RB3LYP) =  -626.275082259     A.U. after   11 cycles
 SCF Done:  E(RB3LYP) =  -626.275132395     A.U. after   11 cycles
 SCF Done:  E(RB3LYP) =  -626.275158401     A.U. after   10 cycles
 SCF Done:  E(RB3LYP) =  -626.275168136     A.U. after   10 cycles
 SCF Done:  E(RB3LYP) =  -626.275170094     A.U. after    8 cycles
 SCF Done:  E(RB3LYP) =  -626.275170372     A.U. after    8 cycles
 Optimization completed.
    -- Stationary point found.
 Normal termination of Gaussian 16 at Wed Aug 14 20:21:36 2024.

 ----------------------------------------------------------------------
 #N Geom=AllCheck Guess=TCheck SCRF=Check GenChk RB3LYP/6-31G(d,p) Freq
 ----------------------------------------------------------------------

 Structure from the checkpoint file:  "pyrmd1_conf-4.chk"
 ----------
 pyrmd1.xyz
 ----------
 Charge =  0 Multiplicity = 1

 SCF Done:  E(RB3LYP) =  -626.275170372     A.U. after    1 cycles
 ******    1 imaginary frequencies (negative Signs) ******

                      1                      2                      3
                      A                      A                      A
 Frequencies --    -94.4378                32.0197                54.7433
 Red. masses --      1.3538                 3.8765                 3.3501
 Frc consts  --      0.0071                 0.0023                 0.0059
 IR Inten    --    221.4144                 3.8268                 2.8949

                      4                      5                      6
                      A                      A                      A
 Frequencies --     99.9289               107.1136               154.8326
 Red. masses --      4.9393                 3.6684                 2.4942
 Frc consts  --      0.0291                 0.0248                 0.0352
 IR Inten    --      1.0586                 4.1180                 0.9074

                      7                      8                      9
                      A                      A                      A
 Frequencies --    189.9778               213.1528               238.2798
 Red. masses --      1.3427                 2.1612                 1.2813
 Frc consts  --      0.0286                 0.0579                 0.0429
 IR Inten    --      2.1100                 0.3858                 1.6129

                     10                     11                     12
                      A                      A                      A
 Frequencies --    271.8774               310.0601               330.1690
 Red. masses --      5.8707                 5.5851                 2.8938
 Frc consts  --      0.2557                 0.3164                 0.1859
 IR Inten    --     11.8996                 3.5399                 7.5324

                     13                     14                     15
                      A                      A                      A
 Frequencies --    342.7700               410.7318               453.4553
 Red. masses --      2.8194                 4.9142                 3.3100
 Frc consts  --      0.1952                 0.4884                 0.4010
 IR Inten    --     10.9676                 9.0628                 6.3963

                     16                     17                     18
                      A                      A                      A
 Frequencies --    462.3473               544.9342               574.0550
 Red. masses --      3.3315                 3.6339                 1.0396
 Frc consts  --      0.4196                 0.6358                 0.2018
 IR Inten    --      3.0004                10.3048                 0.0108

                     19                     20                     21
                      A                      A                      A
 Frequencies --    577.2403               628.9230               662.3563
 Red. masses --      5.9368                 3.6477                 6.5019
 Frc consts  --      1.1655                 0.8501                 1.6806
 IR Inten    --      1.1196                 2.2839                 5.0115

                     22                     23                     24
                      A                      A                      A
 Frequencies --    759.5803               775.9695               788.8103
 Red. masses --      8.8492                 3.0864                 1.9845
 Frc consts  --      3.0082                 1.0950                 0.7275
 IR Inten    --      4.6150                 7.9622                 0.4949

                     25                     26                     27
                      A                      A                      A
 Frequencies --    817.7259               854.9306               889.8160
 Red. masses --      9.3769                 2.3852                 2.7488
 Frc consts  --      3.6942                 1.0272                 1.2823
 IR Inten    --     27.2282                 1.4727                 5.5272

                     28                     29                     30
                      A                      A                      A
 Frequencies --    973.1166              1013.4195              1015.1229
 Red. masses --      3.4138                 1.4463                 1.5840
 Frc consts  --      1.9047                 0.8752                 0.9617
 IR Inten    --      2.0533                 1.6686                 6.5267

                     31                     32                     33
                      A                      A                      A
 Frequencies --   1036.0402              1061.8483              1095.2345
 Red. masses --      3.5195                 1.6094                 2.0259
 Frc consts  --      2.2258                 1.0692                 1.4318
 IR Inten    --     18.0503                 4.4480                 0.3926

                     34                     35                     36
                      A                      A                      A
 Frequencies --   1120.7726              1133.8863              1203.8079
 Red. masses --      2.4449                 3.7417                 1.8264
 Frc consts  --      1.8095                 2.8344                 1.5594
 IR Inten    --     12.7283               200.0437                27.1092

                     37                     38                     39
                      A                      A                      A
 Frequencies --   1243.8255              1299.9431              1315.2744
 Red. masses --      3.6381                 4.2112                 2.6584
 Frc consts  --      3.3162                 4.1928                 2.7096
 IR Inten    --    147.9545               323.5545               183.2581

                     40                     41                     42
                      A                      A                      A
 Frequencies --   1336.1005              1389.7707              1408.4182
 Red. masses --      1.1189                 2.0712                 1.3730
 Frc consts  --      1.1768                 2.3570                 1.6046
 IR Inten    --     13.8732                38.2637                31.4925

                     43                     44                     45
                      A                      A                      A
 Frequencies --   1416.9811              1433.3700              1454.2959
 Red. masses --      1.3777                 1.4068                 2.1017
 Frc consts  --      1.6298                 1.7030                 2.6190
 IR Inten    --     27.3589                 7.5368               125.6426

                     46                     47                     48
                      A                      A                      A
 Frequencies --   1491.6375              1491.8858              1498.9654
 Red. masses --      1.6252                 1.0547                 1.0870
 Frc consts  --      2.1305                 1.3830                 1.4390
 IR Inten    --     15.2632                 7.2498                38.1668

                     49                     50                     51
                      A                      A                      A
 Frequencies --   1502.0131              1508.2920              1523.7255
 Red. masses --      1.1158                 1.8723                 1.0601
 Frc consts  --      1.4832                 2.5096                 1.4501
 IR Inten    --     26.6822                36.6482                 6.8981

                     52                     53                     54
                      A                      A                      A
 Frequencies --   1579.0713              1640.1696              1660.0777
 Red. masses --      6.7256                 2.9265                 3.0866
 Frc consts  --      9.8806                 4.6385                 5.0117
 IR Inten    --    113.5355                22.8332              1026.9404

                     55                     56                     57
                      A                      A                      A
 Frequencies --   1779.3248              3055.9227              3070.3025
 Red. masses --     11.3229                 1.0363                 1.0354
 Frc consts  --     21.1213                 5.7019                 5.7504
 IR Inten    --    254.9273                18.4530                 6.1638

                     58                     59                     60
                      A                      A                      A
 Frequencies --   3085.2382              3124.4617              3134.9541
 Red. masses --      1.0587                 1.1028                 1.0994
 Frc consts  --      5.9373                 6.3428                 6.3659
 IR Inten    --     31.8753                22.9729                 6.6692

                     61                     62                     63
                      A                      A                      A
 Frequencies --   3137.5441              3157.1105              3168.8697
 Red. masses --      1.1048                 1.1059                 1.1053
 Frc consts  --      6.4078                 6.4945                 6.5395
 IR Inten    --     10.9075                22.6190                12.5702

                     64                     65                     66
                      A                      A                      A
 Frequencies --   3195.2265              3638.0293              3784.0784
 Red. masses --      1.0917                 1.0440                 1.1069
 Frc consts  --      6.5667                 8.1411                 9.3387
 IR Inten    --      2.8521               148.5723                61.1284

 - Thermochemistry -
 -------------------
 Temperature   298.150 Kelvin.  Pressure   1.00000 Atm.
 Atom     1 has atomic number  7 and mass  14.00307

 Molecular mass:   181.08513 amu.
 Principal axes and moments of inertia in atomic units:
                                 1                 2                 3
     Eigenvalues --          911.602668       4060.330926       4781.117828
           X                   0.999978         -0.003712         -0.005445
           Y                   0.003683          0.999980         -0.005190
           Z                   0.005464          0.005170          0.999972
 This molecule is an asymmetric top.
 Rotational symmetry number  1.
 Warning -- assumption of classical behavior for rotation
           may cause significant error
 Rotational temperatures (Kelvin)      0.09501     0.02133     0.01812
 Rotational constants (GHZ):           1.97975     0.44448     0.37747
    1 imaginary frequencies ignored.
 Zero-point vibrational energy     506761.6 (Joules/Mol)
                                  121.11894 (Kcal/Mol)
 Warning -- explicit consideration of  18 degrees of freedom as
           vibrations may cause significant error
 Vibrational temperatures:     46.07    78.76   143.78   154.11   222.77
          (Kelvin)            273.34   306.68   342.83   391.17   446.11
                              475.04   493.17   590.95   652.42   665.21
                              784.04   825.94   830.52   904.88   952.98
                             1092.87  1116.45  1134.92  1176.53  1230.05
                             1280.25  1400.10  1458.08  1460.54  1490.63
                             1527.76  1575.80  1612.54  1631.41  1732.01
                             1789.59  1870.33  1892.39  1922.35  1999.57
                             2026.40  2038.72  2062.30  2092.41  2146.13
                             2146.49  2156.68  2161.06  2170.10  2192.30
                             2271.93  2359.84  2388.48  2560.05  4396.79
                             4417.48  4438.97  4495.40  4510.50  4514.23
                             4542.38  4559.30  4597.22  5234.31  5444.44

 Zero-point correction=                           0.193015 (Hartree/Particle)
 Thermal correction to Energy=                    0.205331
 Thermal correction to Enthalpy=                  0.206275
 Thermal correction to Gibbs Free Energy=         0.153618
 Sum of electronic and zero-point Energies=           -626.082155
 Sum of electronic and thermal Energies=              -626.069839
 Sum of electronic and thermal Enthalpies=            -626.068895
 Sum of electronic and thermal Free Energies=         -626.121552

                     E (Thermal)             CV                S
                      KCal/Mol        Cal/Mol-Kelvin    Cal/Mol-Kelvin
 Total                  128.847             45.356            110.826
 Electronic               0.000              0.000              0.000
 Translational            0.889              2.981             41.488
 Rotational               0.889              2.981             31.249
 Vibrational            127.070             39.395             38.090
 Vibration     1          0.594              1.983              5.700
 Vibration     2          0.596              1.976              4.638
 Vibration     3          0.604              1.949              3.456
 Vibration     4          0.606              1.944              3.321
 Vibration     5          0.620              1.897              2.612
 Vibration     6          0.633              1.854              2.228
 Vibration     7          0.644              1.821              2.017
 Vibration     8          0.656              1.782              1.816
 Vibration     9          0.675              1.725              1.584
 Vibration    10          0.699              1.655              1.362
 Vibration    11          0.713              1.615              1.259
 Vibration    12          0.722              1.590              1.199
 Vibration    13          0.775              1.447              0.924
 Vibration    14          0.812              1.353              0.785
 Vibration    15          0.820              1.334              0.759
 Vibration    16          0.900              1.151              0.555
 Vibration    17          0.930              1.087              0.496
 Vibration    18          0.934              1.080              0.491

                           ! Non-Optimized Parameters !
 Normal termination of Gaussian 16 at Wed Aug 14 20:23:23 2024.

 ----------------------------------------------------------------------
 # M062X/def2tzvp int=(grid=ultrafine) pop=nbo7 polar prop=efg volume g
 uess=read geom=check
 ----------------------------------------------------------------------

 ----------
 pyrmd1.xyz
 ----------
 Structure from the checkpoint file:  "pyrmd1_conf-4.chk"
 Charge =  0 Multiplicity = 1

 SCF Done:  E(RM062X) =  -626.201789342     A.U. after   12 cycles

  Exact polarizability:     179.275      -0.250     119.385       4.321       0.001      76.993
 Approx polarizability:     190.661       3.221     158.590       7.145       0.369     102.183

 Summary of Natural Population Analysis:

                                     Natural Population
             Natural    ---------------------------------------------
  Atom No    Charge        Core      Valence    Rydberg      Total
 --------------------------------------------------------------------
    N  1   -0.77420      2.00000     5.75442    0.01978     7.77420
    C  2    0.56695      1.99999     3.40651    0.02654     5.43305
    N  3   -0.52096      1.99999     5.48819    0.03278     7.52096
    C  4    0.32904      1.99999     3.65122    0.01974     5.67096
    C  5   -0.64702      1.99999     4.63676    0.01027     6.64702
    C  6   -0.32586      1.99999     4.30790    0.01796     6.32586
    C  7    0.78459      1.99999     3.18002    0.03539     5.21541
    O  8   -0.51134      2.00000     6.48928    0.02206     8.51134
    C  9   -0.07634      1.99999     4.06044    0.01590     6.07634
    C 10   -0.63421      1.99999     4.62488    0.00934     6.63421
    O 11   -0.61687      2.00000     6.59182    0.02505     8.61687
    C 12    0.15234      1.99999     3.82532    0.02235     5.84766
    N 13   -0.50475      1.99999     5.47229    0.03247     7.50475
    H 14    0.40941      0.00000     0.58913    0.00146     0.59059
    H 15    0.40841      0.00000     0.59006    0.00153     0.59159
    H 16    0.23616      0.00000     0.76271    0.00113     0.76384
    H 17    0.22927      0.00000     0.76928    0.00145     0.77073
    H 18    0.23684      0.00000     0.76209    0.00107     0.76316
    H 19    0.19981      0.00000     0.79798    0.00221     0.80019
    H 20    0.18585      0.00000     0.81240    0.00175     0.81415
    H 21    0.22587      0.00000     0.77301    0.00112     0.77413
    H 22    0.20893      0.00000     0.78989    0.00118     0.79107
    H 23    0.21669      0.00000     0.78244    0.00087     0.78331
    H 24    0.22138      0.00000     0.77700    0.00163     0.77862
 ====================================================================
 * Total *  0.00000     25.99990    69.69506    0.30504    96.00000

 Normal termination of Gaussian 16 at Wed Aug 14 20:30:16 2024.
 Gaussian 16:  ES64L-G16RevC.01  3-Jul-2019

 --------------------------------------------------------------------
 # M062X/def2tzvp int=(grid=ultrafine) nmr=giao guess=read geom=check
 --------------------------------------------------------------------

 ----------
 pyrmd1.xyz
 ----------
 Structure from the checkpoint file:  "pyrmd1_conf-4.chk"
 Charge =  0 Multiplicity = 1

                         Standard orientation:
 ---------------------------------------------------------------------
 Center     Atomic      Atomic             Coordinates (Angstroms)
 Number     Number       Type             X           Y           Z
 ---------------------------------------------------------------------
      1          7           0        4.217129    0.021854    0.223706
      2          6           0        2.875541   -0.101412    0.111766
      3          7           0        2.166682    1.043282    0.052413
      4          6           0        0.839227    0.947206   -0.061781
      5          6           0        0.111409    2.261940   -0.121901
      6          6           0        0.213111   -0.322078   -0.116640
      7          6           0       -1.230477   -0.615033   -0.240003
      8          8           0       -2.004353    0.493776   -0.317004
      9          6           0       -3.429487    0.267778   -0.418890
     10          6           0       -4.045697    0.018266    0.947523
     11          8           0       -1.688543   -1.744288   -0.273183
     12          6           0        1.065930   -1.435533   -0.042319
     13          7           0        2.384136   -1.359779    0.070491
     14          1           0        4.783169   -0.807383    0.279473
     15          1           0        4.626027    0.939318    0.266634
     16          1           0       -0.615700    2.343991    0.689635
     17          1           0        0.842386    3.067613   -0.051632
     18          1           0       -0.455729    2.352014   -1.051690
     19          1           0       -3.604895   -0.575324   -1.090384
     20          1           0       -3.814689    1.183246   -0.873262
     21          1           0       -3.656713   -0.907983    1.375308
     22          1           0       -3.826258    0.845717    1.628481
     23          1           0       -5.132715   -0.073106    0.855159
     24          1           0        0.625304   -2.428304   -0.079035
 ---------------------------------------------------------------------

 SCF Done:  E(RM062X) =  -626.201789342     A.U. after    1 cycles

      1  N    Isotropic =   160.3115   Anisotropy =   119.7140

      2  C    Isotropic =     1.5875   Anisotropy =   159.3144

      3  N    Isotropic =   -50.1012   Anisotropy =   425.2300

      4  C    Isotropic =   -13.2182   Anisotropy =   239.7171

      5  C    Isotropic =   155.0037   Anisotropy =    36.1405

      6  C    Isotropic =    53.4442   Anisotropy =   166.1211

      7  C    Isotropic =    -0.0841   Anisotropy =   101.5564

      8  O    Isotropic =    99.3575   Anisotropy =   176.0737

      9  C    Isotropic =   121.6931   Anisotropy =    68.5679

     10  C    Isotropic =   170.1536   Anisotropy =    25.1374

     11  O    Isotropic =  -111.7897   Anisotropy =   659.2895

     12  C    Isotropic =    -5.6208   Anisotropy =   226.1579

     13  N    Isotropic =   -47.3489   Anisotropy =   474.1530

     14  H    Isotropic =    26.7741   Anisotropy =     9.6725

     15  H    Isotropic =    26.7935   Anisotropy =     9.2403

     16  H    Isotropic =    28.9936   Anisotropy =     5.6118

     17  H    Isotropic =    29.5331   Anisotropy =     7.5092

     18  H    Isotropic =    29.0413   Anisotropy =     5.1483

     19  H    Isotropic =    26.9239   Anisotropy =     5.4320

     20  H    Isotropic =    28.0563   Anisotropy =     6.7765

     21  H    Isotropic =    30.0603   Anisotropy =     6.4589

     22  H    Isotropic =    30.7874   Anisotropy =     7.8304

     23  H    Isotropic =    30.9471   Anisotropy =    10.5456

     24  H    Isotropic =    21.9008   Anisotropy =     9.4132

 The electronic state is 1-A.
 Alpha  occ. eigenvalues --  -19.67122 -19.61122 -14.77384 -14.75188 -14.75110
 Alpha  occ. eigenvalues --  -10.67723 -10.65622 -10.61313 -10.59716 -10.59547
 Alpha  occ. eigenvalues --  -10.55576 -10.53460 -10.53283  -1.22963  -1.13542
 Alpha  occ. eigenvalues --   -1.12177  -1.02226  -1.00307  -0.90271  -0.86366
 Alpha  occ. eigenvalues --   -0.82824  -0.76809  -0.72894  -0.72027  -0.65131
 Alpha  occ. eigenvalues --   -0.63838  -0.61114  -0.60202  -0.57598  -0.55894
 Alpha  occ. eigenvalues --   -0.54345  -0.52779  -0.52243  -0.49675  -0.48429
 Alpha  occ. eigenvalues --   -0.48099  -0.46791  -0.45895  -0.45220  -0.43661
 Alpha  occ. eigenvalues --   -0.41136  -0.40137  -0.39810  -0.37432  -0.37138
 Alpha  occ. eigenvalues --   -0.35448  -0.32329  -0.29185
 Alpha virt. eigenvalues --   -0.01184  -0.00311   0.06279   0.06856   0.08709
 Alpha virt. eigenvalues --    0.09887   0.10807   0.10855   0.11387   0.13456
 Alpha virt. eigenvalues --    0.13631   0.13984   0.14738   0.15225   0.16008

 Mulliken charges:
               1
     1  N   -0.502382
     2  C    0.412357
     3  N   -0.301103
     4  C    0.182331
     5  C   -0.468024
     6  C   -0.100376
     7  C    0.382395
     8  O   -0.290340
     9  C   -0.107016
    10  C   -0.429858
    11  O   -0.379451
    12  C   -0.053538
    13  N   -0.286250
    14  H    0.267959
    15  H    0.266211
    16  H    0.162358
    17  H    0.151632
    18  H    0.163168
    19  H    0.157187
    20  H    0.137835
    21  H    0.171876
    22  H    0.140613
    23  H    0.141223
    24  H    0.181192
 Sum of Mulliken charges =  -0.00000

 Dipole moment (field-independent basis, Debye):
    X=              0.5466    Y=              2.3495    Z=              0.2275  Tot=              2.4230
 Quadrupole moment (field-independent basis, Debye-Ang):
   XX=            -56.0012   YY=            -81.1016   ZZ=            -77.2590
   XY=             -3.2434   XZ=              1.3064   YZ=             -0.6393

 Normal termination of Gaussian 16 at Wed Aug 14 20:32:53 2024.
