 Gaussian 16, Revision C.01,

 ----------------------------------------------------------------------
 # B3LYP/6-31G(d,p) symmetry=loose empiricaldispersion=GD3BJ int=(grid=
 ultrafine) opt freq=noraman
 ----------------------------------------------------------------------

 ----------
 pyrmd2.xyz
 ----------
 Symbolic Z-matrix:
 Charge =  0 Multiplicity = 1

 SCF Done:  E(RB3LYP) =  -1453.94767173     A.U. after   14 cycles
 SCF Done:  E(RB3LYP) =  -1453.95253341     A.U. after   12 cycles
 SCF Done:  E(RB3LYP) =  -1453.95306849     A.U. after   11 cycles
 SCF Done:  E(RB3LYP) =  -1453.95311885     A.U. after   10 cycles
 SCF Done:  E(RB3LYP) =  -1453.95312081     A.U. after    8 cycles
 SCF Done:  E(RB3LYP) =  -1453.95312097     A.U. after    7 cycles
 Optimization completed.
    -- Stationary point found.
 Normal termination of Gaussian 16 at Wed Aug 14 20:23:34 2024.

 ----------------------------------------------------------------------
 #N Geom=AllCheck Guess=TCheck SCRF=Check GenChk RB3LYP/6-31G(d,p) Freq
 ----------------------------------------------------------------------

 Structure from the checkpoint file:  "pyrmd2_conf-2.chk"
 ----------
 pyrmd2.xyz
 ----------
 Charge =  0 Multiplicity = 1

 SCF Done:  E(RB3LYP) =  -1453.95312097     A.U. after    1 cycles
 ******    1 imaginary frequencies (negative Signs) ******

                      1                      2                      3
                      A                      A                      A
 Frequencies --    -12.4246                19.9768                52.1085
 Red. masses --      5.1583                 3.8708                 7.2888
 Frc consts  --      0.0005                 0.0009                 0.0117
 IR Inten    --      0.0106                 0.0181                 0.1492

                      4                      5                      6
                      A                      A                      A
 Frequencies --    133.2196               164.9807               167.8030
 Red. masses --      8.4885                 4.4180                 8.0719
 Frc consts  --      0.0888                 0.0709                 0.1339
 IR Inten    --      0.5807                 4.9486                 0.2614

                      7                      8                      9
                      A                      A                      A
 Frequencies --    191.3872               200.9818               258.7797
 Red. masses --     12.6656                14.1780                 6.7077
 Frc consts  --      0.2733                 0.3374                 0.2647
 IR Inten    --      0.3753                 0.0002                 0.9164

                     10                     11                     12
                      A                      A                      A
 Frequencies --    324.6999               402.5330               415.5346
 Red. masses --      1.9928                15.9412                 2.9598
 Frc consts  --      0.1238                 1.5219                 0.3011
 IR Inten    --      0.5992                 4.6983                 0.0011

                     13                     14                     15
                      A                      A                      A
 Frequencies --    432.1253               445.7754               485.6272
 Red. masses --      8.9831                10.2514                 3.9373
 Frc consts  --      0.9883                 1.2002                 0.5471
 IR Inten    --      3.9783                 2.7570                 1.5680

                     16                     17                     18
                      A                      A                      A
 Frequencies --    573.8807               596.6862               613.0203
 Red. masses --      3.6318                 5.2660                12.3492
 Frc consts  --      0.7047                 1.1046                 2.7343
 IR Inten    --      0.9543                16.8037                 0.0081

                     19                     20                     21
                      A                      A                      A
 Frequencies --    637.7363               663.4256               714.0899
 Red. masses --      6.3186                 4.5014                 1.6739
 Frc consts  --      1.5141                 1.1673                 0.5029
 IR Inten    --      0.0473                19.5011                29.9352

                     22                     23                     24
                      A                      A                      A
 Frequencies --    764.2009               774.3572               819.8467
 Red. masses --      4.4633                 2.2440                 9.2504
 Frc consts  --      1.5358                 0.7928                 3.6633
 IR Inten    --      1.7205                 6.4846               136.3980

                     25                     26                     27
                      A                      A                      A
 Frequencies --    856.6608               858.4437               863.7100
 Red. masses --      1.2516                 3.9942                 1.4035
 Frc consts  --      0.5412                 1.7342                 0.6169
 IR Inten    --      0.0134                32.0440                18.0938

                     28                     29                     30
                      A                      A                      A
 Frequencies --    920.3064               934.6956               935.1979
 Red. masses --      2.6292                 2.1824                 2.1947
 Frc consts  --      1.3120                 1.1234                 1.1309
 IR Inten    --     20.7953                 1.5535                35.3391

                     31                     32                     33
                      A                      A                      A
 Frequencies --    967.6057               996.8410              1003.4012
 Red. masses --      1.3548                 1.2608                 8.9141
 Frc consts  --      0.7473                 0.7382                 5.2878
 IR Inten    --      0.0289                 0.2210                 0.3401

                     34                     35                     36
                      A                      A                      A
 Frequencies --   1021.9190              1059.3194              1111.6670
 Red. masses --      6.2496                 2.1759                 1.5555
 Frc consts  --      3.8453                 1.4386                 1.1326
 IR Inten    --      0.9295                 3.0373                 4.8897

                     37                     38                     39
                      A                      A                      A
 Frequencies --   1129.0255              1188.5561              1206.4639
 Red. masses --      1.5559                 1.1002                 1.1656
 Frc consts  --      1.1685                 0.9157                 0.9996
 IR Inten    --     47.5971                 0.0188                 0.0107

                     40                     41                     42
                      A                      A                      A
 Frequencies --   1210.0560              1229.1194              1254.0957
 Red. masses --      1.1404                 2.2755                 7.5327
 Frc consts  --      0.9838                 2.0254                 6.9802
 IR Inten    --      0.7362                 3.6671                38.1126

                     43                     44                     45
                      A                      A                      A
 Frequencies --   1275.7878              1332.1164              1360.5552
 Red. masses --      8.8247                 2.0800                 2.2169
 Frc consts  --      8.4627                 2.1747                 2.4179
 IR Inten    --     58.2916                40.7079                 0.1331

                     46                     47                     48
                      A                      A                      A
 Frequencies --   1364.7929              1406.2958              1422.3493
 Red. masses --      1.9850                 6.3466                 2.9574
 Frc consts  --      2.1785                 7.3951                 3.5251
 IR Inten    --      0.3061               111.4496                70.3813

                     49                     50                     51
                      A                      A                      A
 Frequencies --   1474.7424              1499.1064              1545.8106
 Red. masses --      1.1456                 2.2488                 2.3462
 Frc consts  --      1.4680                 2.9776                 3.3032
 IR Inten    --     21.2975                 5.4300                 7.1394

                     52                     53                     54
                      A                      A                      A
 Frequencies --   1571.3340              1605.3783              1647.7421
 Red. masses --      7.5668                11.1377                 5.7147
 Frc consts  --     11.0077                16.9123                 9.1416
 IR Inten    --    382.0708               363.1504                 0.7544

                     55                     56                     57
                      A                      A                      A
 Frequencies --   1669.4958              3053.6406              3088.4817
 Red. masses --      5.7656                 1.0614                 1.1010
 Frc consts  --      9.4682                 5.8314                 6.1879
 IR Inten    --      1.2083                10.6203                 3.7402

                     58                     59                     60
                      A                      A                      A
 Frequencies --   3174.0327              3175.5640              3187.4105
 Red. masses --      1.0860                 1.0880                 1.0901
 Frc consts  --      6.4459                 6.4646                 6.5251
 IR Inten    --      8.8110                 4.8146                 8.5296

                     61                     62                     63
                      A                      A                      A
 Frequencies --   3196.9246              3208.3603              3262.8595
 Red. masses --      1.0943                 1.0985                 1.0951
 Frc consts  --      6.5893                 6.6624                 6.8690
 IR Inten    --     36.1837                19.2440                 1.9679

 - Thermochemistry -
 -------------------
 Temperature   298.150 Kelvin.  Pressure   1.00000 Atm.
 Atom     1 has atomic number 17 and mass  34.96885

 Molecular mass:   238.00645 amu.
 Principal axes and moments of inertia in atomic units:
                                 1                 2                 3
     Eigenvalues --         2217.268254       6987.770764       8563.579980
           X                   0.999975         -0.007093          0.000020
           Y                   0.007093          0.999975         -0.000022
           Z                  -0.000020          0.000022          1.000000
 This molecule is an asymmetric top.
 Rotational symmetry number  1.
 Warning -- assumption of classical behavior for rotation
           may cause significant error
 Rotational temperatures (Kelvin)      0.03906     0.01240     0.01011
 Rotational constants (GHZ):           0.81395     0.25827     0.21075
    1 imaginary frequencies ignored.
 Zero-point vibrational energy     437370.5 (Joules/Mol)
                                  104.53406 (Kcal/Mol)
 Warning -- explicit consideration of  17 degrees of freedom as
           vibrations may cause significant error
 Vibrational temperatures:     28.74    74.97   191.67   237.37   241.43
          (Kelvin)            275.36   289.17   372.33   467.17   579.16
                              597.86   621.73   641.37   698.71   825.69
                              858.50   882.00   917.56   954.52  1027.42
                             1099.51  1114.13  1179.58  1232.54  1235.11
                             1242.69  1324.12  1344.82  1345.54  1392.17
                             1434.23  1443.67  1470.31  1524.12  1599.44
                             1624.42  1710.07  1735.83  1741.00  1768.43
                             1804.36  1835.57  1916.62  1957.54  1963.63
                             2023.35  2046.44  2121.83  2156.88  2224.08
                             2260.80  2309.78  2370.73  2402.03  4393.51
                             4443.64  4566.73  4568.93  4585.97  4599.66
                             4616.11  4694.53

 Zero-point correction=                           0.166586 (Hartree/Particle)
 Thermal correction to Energy=                    0.178262
 Thermal correction to Enthalpy=                  0.179207
 Thermal correction to Gibbs Free Energy=         0.126384
 Sum of electronic and zero-point Energies=          -1453.786535
 Sum of electronic and thermal Energies=             -1453.774858
 Sum of electronic and thermal Enthalpies=           -1453.773914
 Sum of electronic and thermal Free Energies=        -1453.826737

                     E (Thermal)             CV                S
                      KCal/Mol        Cal/Mol-Kelvin    Cal/Mol-Kelvin
 Total                  111.861             44.981            111.175
 Electronic               0.000              0.000              0.000
 Translational            0.889              2.981             42.303
 Rotational               0.889              2.981             33.250
 Vibrational            110.084             39.020             35.622
 Vibration     1          0.593              1.986              6.637
 Vibration     2          0.596              1.977              4.736
 Vibration     3          0.613              1.920              2.899
 Vibration     4          0.623              1.885              2.492
 Vibration     5          0.625              1.882              2.460
 Vibration     6          0.634              1.852              2.214
 Vibration     7          0.638              1.838              2.124
 Vibration     8          0.668              1.748              1.670
 Vibration     9          0.709              1.626              1.286
 Vibration    10          0.768              1.465              0.953
 Vibration    11          0.779              1.436              0.907
 Vibration    12          0.793              1.400              0.852
 Vibration    13          0.805              1.370              0.809
 Vibration    14          0.842              1.282              0.695
 Vibration    15          0.930              1.088              0.497
 Vibration    16          0.955              1.039              0.455
 Vibration    17          0.972              1.004              0.428

                           ! Non-Optimized Parameters !
 Normal termination of Gaussian 16 at Wed Aug 14 20:25:41 2024.

 ----------------------------------------------------------------------
 # M062X/def2tzvp int=(grid=ultrafine) pop=nbo7 polar prop=efg volume g
 uess=read geom=check
 ----------------------------------------------------------------------

 ----------
 pyrmd2.xyz
 ----------
 Structure from the checkpoint file:  "pyrmd2_conf-2.chk"
 Charge =  0 Multiplicity = 1

 SCF Done:  E(RM062X) =  -1453.87053495     A.U. after   12 cycles

  Exact polarizability:     208.793      21.866     154.212      -0.013      -0.031     122.378
 Approx polarizability:     235.460      29.729     208.309      -0.039      -0.055     178.139

 Summary of Natural Population Analysis:

                                     Natural Population
             Natural    ---------------------------------------------
  Atom No    Charge        Core      Valence    Rydberg      Total
 --------------------------------------------------------------------
   Cl  1    0.02321      9.99998     6.96022    0.01659    16.97679
    C  2    0.23400      1.99999     3.73524    0.03077     5.76600
    C  3   -0.33714      1.99999     4.31744    0.01971     6.33714
    C  4    0.23411      1.99999     3.73504    0.03086     5.76589
   Cl  5    0.02585      9.99998     6.95764    0.01653    16.97415
    N  6   -0.46310      1.99999     5.42753    0.03558     7.46310
    C  7    0.45360      1.99999     3.52264    0.02376     5.54640
    C  8   -0.46662      1.99999     4.45285    0.01378     6.46662
    C  9   -0.01482      1.99999     3.99674    0.01809     6.01482
    C 10   -0.20307      1.99999     4.18696    0.01612     6.20307
    C 11   -0.20374      1.99999     4.18735    0.01640     6.20374
    C 12   -0.21455      1.99999     4.19819    0.01637     6.21455
    C 13   -0.20374      1.99999     4.18734    0.01640     6.20374
    C 14   -0.20295      1.99999     4.18684    0.01612     6.20295
    N 15   -0.46629      1.99999     5.43143    0.03486     7.46629
    H 16    0.25589      0.00000     0.74291    0.00120     0.74411
    H 17    0.24271      0.00000     0.75587    0.00142     0.75729
    H 18    0.24274      0.00000     0.75584    0.00142     0.75726
    H 19    0.21002      0.00000     0.78861    0.00137     0.78998
    H 20    0.21457      0.00000     0.78423    0.00119     0.78543
    H 21    0.21472      0.00000     0.78417    0.00111     0.78528
    H 22    0.21458      0.00000     0.78423    0.00119     0.78542
    H 23    0.21002      0.00000     0.78860    0.00137     0.78998
 ====================================================================
 * Total *  0.00000     45.99986    75.66792    0.33222   122.00000

 Normal termination of Gaussian 16 at Wed Aug 14 20:35:01 2024.
 Gaussian 16:  ES64L-G16RevC.01  3-Jul-2019

 --------------------------------------------------------------------
 # M062X/def2tzvp int=(grid=ultrafine) nmr=giao guess=read geom=check
 --------------------------------------------------------------------

 ----------
 pyrmd2.xyz
 ----------
 Structure from the checkpoint file:  "pyrmd2_conf-2.chk"
 Charge =  0 Multiplicity = 1

                         Standard orientation:
 ---------------------------------------------------------------------
 Center     Atomic      Atomic             Coordinates (Angstroms)
 Number     Number       Type             X           Y           Z
 ---------------------------------------------------------------------
      1         17           0       -4.239175   -1.326914    0.002431
      2          6           0       -2.657722   -0.574641    0.000317
      3          6           0       -2.577069    0.817675    0.001619
      4          6           0       -1.274531    1.306602   -0.000256
      5         17           0       -1.020159    3.038433    0.001052
      6          7           0       -0.195080    0.540968   -0.003088
      7          6           0       -0.402660   -0.780710   -0.004231
      8          6           0        0.791271   -1.711447   -0.007234
      9          6           0        2.135112   -1.028548   -0.002959
     10          6           0        2.763820   -0.704209    1.202796
     11          6           0        3.998921   -0.058063    1.209522
     12          6           0        4.621498    0.271588    0.005270
     13          6           0        4.002088   -0.048867   -1.203087
     14          6           0        2.766971   -0.695019   -1.204535
     15          7           0       -1.608958   -1.376148   -0.002466
     16          1           0       -3.447648    1.457449    0.003940
     17          1           0        0.686052   -2.363198   -0.882325
     18          1           0        0.684352   -2.371175    0.861600
     19          1           0        2.280399   -0.958175    2.142383
     20          1           0        4.475716    0.185980    2.153976
     21          1           0        5.584553    0.772727    0.008446
     22          1           0        4.481343    0.202392   -2.144397
     23          1           0        2.285981   -0.941733   -2.147290
 ---------------------------------------------------------------------

 SCF Done:  E(RM062X) =  -1453.87053495     A.U. after    1 cycles

      1  Cl   Isotropic =   575.6859   Anisotropy =   616.4633

      2  C    Isotropic =    -7.8909   Anisotropy =   146.6787

      3  C    Isotropic =    47.9559   Anisotropy =   140.7297

      4  C    Isotropic =    -8.7876   Anisotropy =   146.4220

      5  Cl   Isotropic =   572.8893   Anisotropy =   612.4052

      6  N    Isotropic =   -98.2355   Anisotropy =   512.2190

      7  C    Isotropic =   -13.2996   Anisotropy =   183.9083

      8  C    Isotropic =   135.1289   Anisotropy =    43.7388

      9  C    Isotropic =    25.6279   Anisotropy =   228.7680

     10  C    Isotropic =    32.6635   Anisotropy =   201.5821

     11  C    Isotropic =    34.7724   Anisotropy =   216.5622

     12  C    Isotropic =    36.2150   Anisotropy =   217.0526

     13  C    Isotropic =    34.7686   Anisotropy =   216.5652

     14  C    Isotropic =    32.6061   Anisotropy =   201.5918

     15  N    Isotropic =   -97.2254   Anisotropy =   496.1894

     16  H    Isotropic =    24.1993   Anisotropy =    10.8270

     17  H    Isotropic =    27.3957   Anisotropy =     5.3265

     18  H    Isotropic =    27.3919   Anisotropy =     5.3539

     19  H    Isotropic =    23.8529   Anisotropy =     9.0081

     20  H    Isotropic =    23.6873   Anisotropy =     5.9310

     21  H    Isotropic =    23.7416   Anisotropy =     5.3868

     22  H    Isotropic =    23.6876   Anisotropy =     5.9256

     23  H    Isotropic =    23.8498   Anisotropy =     9.0004

 The electronic state is 1-A.
 Alpha  occ. eigenvalues -- -102.66542-102.66387 -14.78192 -14.78092 -10.67358
 Alpha  occ. eigenvalues --  -10.67258 -10.65037 -10.58834 -10.56106 -10.55509
 Alpha  occ. eigenvalues --  -10.54453 -10.54441 -10.54361 -10.54352 -10.54282
 Alpha  occ. eigenvalues --   -9.82807  -9.82651  -7.55001  -7.54846  -7.54496
 Alpha  occ. eigenvalues --   -7.54455  -7.54341  -7.54298  -1.13992  -1.04842
 Alpha  occ. eigenvalues --   -0.99009  -0.96442  -0.94961  -0.90439  -0.87365
 Alpha  occ. eigenvalues --   -0.84344  -0.81325  -0.73533  -0.73260  -0.69193
 Alpha  occ. eigenvalues --   -0.66862  -0.63467  -0.60454  -0.58814  -0.56205
 Alpha  occ. eigenvalues --   -0.55179  -0.53000  -0.52984  -0.51055  -0.49758
 Alpha  occ. eigenvalues --   -0.48925  -0.47667  -0.47317  -0.46526  -0.43362
 Alpha  occ. eigenvalues --   -0.41553  -0.41232  -0.40484  -0.40011  -0.39800
 Alpha  occ. eigenvalues --   -0.39500  -0.36737  -0.35435  -0.34270  -0.30884
 Alpha  occ. eigenvalues --   -0.30255
 Alpha virt. eigenvalues --   -0.03176  -0.02328   0.01729   0.02085   0.04150
 Alpha virt. eigenvalues --    0.06176   0.08639   0.08979   0.09906   0.10342
 Alpha virt. eigenvalues --    0.11958   0.12592   0.12767   0.13777   0.14816

 Mulliken charges:
               1
     1  Cl  -0.047821
     2  C    0.135264
     3  C   -0.243642
     4  C    0.127863
     5  Cl  -0.047070
     6  N   -0.195866
     7  C    0.265050
     8  C   -0.439146
     9  C    0.193817
    10  C   -0.186729
    11  C   -0.136864
    12  C   -0.151370
    13  C   -0.136909
    14  C   -0.186511
    15  N   -0.228206
    16  H    0.180387
    17  H    0.187994
    18  H    0.188107
    19  H    0.146430
    20  H    0.142790
    21  H    0.143283
    22  H    0.142788
    23  H    0.146361
 Sum of Mulliken charges =  -0.00000

 Dipole moment (field-independent basis, Debye):
    X=              0.0413    Y=              0.2553    Z=             -0.0001  Tot=              0.2586
 Quadrupole moment (field-independent basis, Debye-Ang):
   XX=            -95.4055   YY=           -103.7436   ZZ=            -95.1561
   XY=             -2.5568   XZ=              0.0003   YZ=             -0.0105

 Normal termination of Gaussian 16 at Wed Aug 14 20:38:22 2024.
