 Gaussian 16, Revision C.01,

 ----------------------------------------------------------------------
 # B3LYP/6-31G(d,p) symmetry=loose empiricaldispersion=GD3BJ int=(grid=
 ultrafine) opt freq=noraman
 ----------------------------------------------------------------------

 ----------
 pyrd12.xyz
 ----------
 Symbolic Z-matrix:
 Charge =  0 Multiplicity = 1

 SCF Done:  E(RB3LYP) =  -609.006326425     A.U. after   15 cycles
 SCF Done:  E(RB3LYP) =  -609.011810564     A.U. after   12 cycles
 SCF Done:  E(RB3LYP) =  -609.012274545     A.U. after   12 cycles
 SCF Done:  E(RB3LYP) =  -609.012323347     A.U. after   11 cycles
 SCF Done:  E(RB3LYP) =  -609.012396564     A.U. after   10 cycles
 SCF Done:  E(RB3LYP) =  -609.012413598     A.U. after    9 cycles
 SCF Done:  E(RB3LYP) =  -609.012419412     A.U. after    9 cycles
 SCF Done:  E(RB3LYP) =  -609.012421216     A.U. after    8 cycles
 SCF Done:  E(RB3LYP) =  -609.012421895     A.U. after    8 cycles
 SCF Done:  E(RB3LYP) =  -609.012421957     A.U. after    7 cycles
 Optimization completed.
    -- Stationary point found.
 Normal termination of Gaussian 16 at Wed Aug 14 18:56:49 2024.

 ----------------------------------------------------------------------
 #N Geom=AllCheck Guess=TCheck SCRF=Check GenChk RB3LYP/6-31G(d,p) Freq
 ----------------------------------------------------------------------

 Structure from the checkpoint file:  "pyrd12_conf-1.chk"
 ----------
 pyrd12.xyz
 ----------
 Charge =  0 Multiplicity = 1

 SCF Done:  E(RB3LYP) =  -609.012421957     A.U. after    1 cycles

                      1                      2                      3
                      A                      A                      A
 Frequencies --     62.5801               104.9547               130.2928
 Red. masses --      4.2565                 4.5343                 3.0922
 Frc consts  --      0.0098                 0.0294                 0.0309
 IR Inten    --      0.0423                 3.2383                 2.6017

                      4                      5                      6
                      A                      A                      A
 Frequencies --    167.6242               200.7558               219.0189
 Red. masses --      3.6076                 2.7292                 1.8141
 Frc consts  --      0.0597                 0.0648                 0.0513
 IR Inten    --      0.9372                 1.2266                 0.9554

                      7                      8                      9
                      A                      A                      A
 Frequencies --    274.4354               300.7651               330.9386
 Red. masses --      2.0257                 3.0683                 4.0791
 Frc consts  --      0.0899                 0.1635                 0.2632
 IR Inten    --      2.8504                 0.4855                 5.3020

                     10                     11                     12
                      A                      A                      A
 Frequencies --    388.1063               438.1749               489.8172
 Red. masses --      8.2220                 3.2569                 5.9225
 Frc consts  --      0.7297                 0.3684                 0.8372
 IR Inten    --      6.2682                 6.9026                 0.3576

                     13                     14                     15
                      A                      A                      A
 Frequencies --    513.9140               529.8482               576.3705
 Red. masses --      4.7333                 3.6773                 2.6110
 Frc consts  --      0.7365                 0.6083                 0.5110
 IR Inten    --      2.1158                 5.0902                17.3018

                     16                     17                     18
                      A                      A                      A
 Frequencies --    601.5961               652.2964               659.0961
 Red. masses --      3.5117                 1.6190                 5.2734
 Frc consts  --      0.7488                 0.4059                 1.3497
 IR Inten    --      6.1491                47.1615                 3.1076

                     19                     20                     21
                      A                      A                      A
 Frequencies --    693.3147               740.6084               772.2607
 Red. masses --      3.2631                 3.8708                 4.6776
 Frc consts  --      0.9242                 1.2509                 1.6436
 IR Inten    --     39.9978                27.0227                 5.4263

                     22                     23                     24
                      A                      A                      A
 Frequencies --    802.4647               810.5939               846.5172
 Red. masses --      1.8625                 1.8955                 5.5844
 Frc consts  --      0.7066                 0.7338                 2.3577
 IR Inten    --     18.5064                17.7492                11.6380

                     25                     26                     27
                      A                      A                      A
 Frequencies --    928.9447               965.1526              1005.0922
 Red. masses --      2.5152                 1.3475                 1.9867
 Frc consts  --      1.2788                 0.7395                 1.1825
 IR Inten    --      4.0733                 0.3964                 7.2759

                     28                     29                     30
                      A                      A                      A
 Frequencies --   1019.2130              1049.9794              1120.1481
 Red. masses --      4.5757                 2.3779                 2.3423
 Frc consts  --      2.8005                 1.5445                 1.7316
 IR Inten    --     17.0989                 2.0647                21.7067

                     31                     32                     33
                      A                      A                      A
 Frequencies --   1157.5914              1178.6154              1192.6266
 Red. masses --      2.6124                 1.2739                 1.3357
 Frc consts  --      2.0625                 1.0426                 1.1194
 IR Inten    --     72.5351                 1.3104                 9.4969

                     34                     35                     36
                      A                      A                      A
 Frequencies --   1210.3302              1220.5239              1235.5326
 Red. masses --      1.4004                 2.2312                 1.8320
 Frc consts  --      1.2087                 1.9583                 1.6477
 IR Inten    --      1.4401                53.1425               180.1474

                     37                     38                     39
                      A                      A                      A
 Frequencies --   1274.1245              1320.0456              1332.1753
 Red. masses --      1.5696                 2.1522                 2.7636
 Frc consts  --      1.5013                 2.2095                 2.8896
 IR Inten    --     29.1862                78.6102                52.5771

                     40                     41                     42
                      A                      A                      A
 Frequencies --   1340.6882              1355.7319              1390.9574
 Red. masses --      2.5936                 2.0931                 2.2114
 Frc consts  --      2.7467                 2.2667                 2.5209
 IR Inten    --     92.8310                66.5138                42.7641

                     43                     44                     45
                      A                      A                      A
 Frequencies --   1447.7906              1477.8120              1485.4150
 Red. masses --      1.9904                 1.1347                 1.4704
 Frc consts  --      2.4581                 1.4600                 1.9115
 IR Inten    --     23.9331                 6.2004                23.1648

                     46                     47                     48
                      A                      A                      A
 Frequencies --   1495.5844              1505.8670              1508.9453
 Red. masses --      1.4121                 1.0475                 1.9354
 Frc consts  --      1.8609                 1.3995                 2.5964
 IR Inten    --     63.2312                 6.3290               104.3579

                     49                     50                     51
                      A                      A                      A
 Frequencies --   1517.8955              1543.1788              1641.9256
 Red. masses --      1.0719                 2.6419                 8.2381
 Frc consts  --      1.4550                 3.7068                13.0853
 IR Inten    --     58.7828                80.1912               111.5394

                     52                     53                     54
                      A                      A                      A
 Frequencies --   1650.6089              1814.0727              3023.4829
 Red. masses --      6.6321                 9.9338                 1.0725
 Frc consts  --     10.6461                19.2608                 5.7767
 IR Inten    --    285.3014               476.2868                17.3295

                     55                     56                     57
                      A                      A                      A
 Frequencies --   3028.9579              3044.3238              3096.1264
 Red. masses --      1.0339                 1.0686                 1.1067
 Frc consts  --      5.5889                 5.8350                 6.2505
 IR Inten    --     49.3559                18.0185                32.7552

                     58                     59                     60
                      A                      A                      A
 Frequencies --   3117.4622              3137.5584              3160.1113
 Red. masses --      1.0915                 1.0945                 1.1013
 Frc consts  --      6.2499                 6.3485                 6.4801
 IR Inten    --      9.6807                11.1639                19.2413

                     61                     62                     63
                      A                      A                      A
 Frequencies --   3171.4055              3240.8343              3616.4252
 Red. masses --      1.0903                 1.0922                 1.0769
 Frc consts  --      6.4610                 6.7586                 8.2983
 IR Inten    --     25.2985                 5.8919                53.5328

 - Thermochemistry -
 -------------------
 Temperature   298.150 Kelvin.  Pressure   1.00000 Atm.
 Atom     1 has atomic number  6 and mass  12.00000

 Molecular mass:   178.07423 amu.
 Principal axes and moments of inertia in atomic units:
                                 1                 2                 3
     Eigenvalues --         1122.736091       3148.480188       4204.339469
           X                   1.000000          0.000498         -0.000179
           Y                  -0.000498          0.999999         -0.001403
           Z                   0.000178          0.001404          0.999999
 This molecule is an asymmetric top.
 Rotational symmetry number  1.
 Warning -- assumption of classical behavior for rotation
           may cause significant error
 Rotational temperatures (Kelvin)      0.07715     0.02751     0.02060
 Rotational constants (GHZ):           1.60745     0.57321     0.42926
 Zero-point vibrational energy     486459.0 (Joules/Mol)
                                  116.26650 (Kcal/Mol)
 Warning -- explicit consideration of  16 degrees of freedom as
           vibrations may cause significant error
 Vibrational temperatures:     90.04   151.01   187.46   241.17   288.84
          (Kelvin)            315.12   394.85   432.73   476.15   558.40
                              630.44   704.74   739.41   762.33   829.27
                              865.56   938.51   948.29   997.53  1065.57
                             1111.11  1154.57  1166.26  1217.95  1336.54
                             1388.64  1446.10  1466.42  1510.69  1611.64
                             1665.52  1695.76  1715.92  1741.40  1756.06
                             1777.66  1833.18  1899.25  1916.70  1928.95
                             1950.60  2001.28  2083.05  2126.24  2137.18
                             2151.81  2166.61  2171.04  2183.91  2220.29
                             2362.36  2374.86  2610.05  4350.12  4357.99
                             4380.10  4454.64  4485.33  4514.25  4546.70
                             4562.95  4662.84  5203.23

 Zero-point correction=                           0.185282 (Hartree/Particle)
 Thermal correction to Energy=                    0.196066
 Thermal correction to Enthalpy=                  0.197010
 Thermal correction to Gibbs Free Energy=         0.148635
 Sum of electronic and zero-point Energies=           -608.827139
 Sum of electronic and thermal Energies=              -608.816356
 Sum of electronic and thermal Enthalpies=            -608.815412
 Sum of electronic and thermal Free Energies=         -608.863787

                     E (Thermal)             CV                S
                      KCal/Mol        Cal/Mol-Kelvin    Cal/Mol-Kelvin
 Total                  123.033             41.941            101.814
 Electronic               0.000              0.000              0.000
 Translational            0.889              2.981             41.438
 Rotational               0.889              2.981             31.075
 Vibrational            121.256             35.979             29.301
 Vibration     1          0.597              1.972              4.374
 Vibration     2          0.605              1.945              3.360
 Vibration     3          0.612              1.923              2.942
 Vibration     4          0.624              1.882              2.462
 Vibration     5          0.638              1.839              2.126
 Vibration     6          0.647              1.812              1.967
 Vibration     7          0.677              1.721              1.568
 Vibration     8          0.693              1.672              1.413
 Vibration     9          0.713              1.614              1.255
 Vibration    10          0.756              1.496              1.007
 Vibration    11          0.798              1.387              0.832
 Vibration    12          0.846              1.273              0.684
 Vibration    13          0.869              1.219              0.624
 Vibration    14          0.885              1.184              0.588
 Vibration    15          0.933              1.082              0.492
 Vibration    16          0.960              1.028              0.447

 Optimization completed.
    -- Stationary point found.
 Normal termination of Gaussian 16 at Wed Aug 14 18:58:36 2024.

 ----------------------------------------------------------------------
 # M062X/def2tzvp int=(grid=ultrafine) pop=nbo7 polar prop=efg volume g
 uess=read geom=check
 ----------------------------------------------------------------------

 ----------
 pyrd12.xyz
 ----------
 Structure from the checkpoint file:  "pyrd12_conf-1.chk"
 Charge =  0 Multiplicity = 1

 SCF Done:  E(RM062X) =  -608.942240375     A.U. after   12 cycles

  Exact polarizability:     168.024       4.664     128.305       1.708       0.663      74.508
 Approx polarizability:     191.134       3.112     164.265       3.536       1.742     103.261

 Summary of Natural Population Analysis:

                                     Natural Population
             Natural    ---------------------------------------------
  Atom No    Charge        Core      Valence    Rydberg      Total
 --------------------------------------------------------------------
    C  1   -0.25778      1.99999     4.24318    0.01461     6.25778
    O  2   -0.47267      1.99999     6.44972    0.02295     8.47267
    C  3    0.35666      1.99999     3.62402    0.01933     5.64334
    C  4   -0.14460      1.99999     4.12693    0.01767     6.14460
    C  5   -0.41696      1.99999     4.40477    0.01220     6.41696
    C  6   -0.49349      1.99999     4.48174    0.01176     6.49349
    C  7    0.68400      1.99999     3.28388    0.03212     5.31600
    N  8   -0.61429      2.00000     5.59227    0.02202     7.61429
    O  9   -0.58425      2.00000     6.55951    0.02474     8.58425
    C 10    0.37935      1.99999     3.59898    0.02168     5.62065
    N 11   -0.46896      1.99999     5.43702    0.03194     7.46896
    C 12    0.06520      1.99999     3.91235    0.02246     5.93480
    C 13   -0.37539      1.99999     4.35900    0.01640     6.37539
    H 14    0.17869      0.00000     0.81957    0.00174     0.82131
    H 15    0.17850      0.00000     0.81976    0.00174     0.82150
    H 16    0.20241      0.00000     0.79651    0.00108     0.79759
    H 17    0.22108      0.00000     0.77693    0.00198     0.77892
    H 18    0.23822      0.00000     0.76021    0.00157     0.76178
    H 19    0.24163      0.00000     0.75707    0.00130     0.75837
    H 20    0.23191      0.00000     0.76668    0.00141     0.76809
    H 21    0.42603      0.00000     0.57146    0.00251     0.57397
    H 22    0.19764      0.00000     0.80087    0.00149     0.80236
    H 23    0.22707      0.00000     0.77153    0.00140     0.77293
 ====================================================================
 * Total *  0.00000     25.99990    67.71399    0.28611    94.00000

 Normal termination of Gaussian 16 at Wed Aug 14 19:05:09 2024.
 Gaussian 16:  ES64L-G16RevC.01  3-Jul-2019

 --------------------------------------------------------------------
 # M062X/def2tzvp int=(grid=ultrafine) nmr=giao guess=read geom=check
 --------------------------------------------------------------------

 ----------
 pyrd12.xyz
 ----------
 Structure from the checkpoint file:  "pyrd12_conf-1.chk"
 Charge =  0 Multiplicity = 1

                         Standard orientation:
 ---------------------------------------------------------------------
 Center     Atomic      Atomic             Coordinates (Angstroms)
 Number     Number       Type             X           Y           Z
 ---------------------------------------------------------------------
      1          6           0        3.683059   -1.205995    0.031192
      2          8           0        2.265694   -1.281870   -0.061569
      3          6           0        1.557817   -0.124562   -0.018621
      4          6           0        0.167211   -0.251477   -0.102589
      5          6           0       -0.549730   -1.564700   -0.274600
      6          6           0       -1.931505   -1.518284    0.390149
      7          6           0       -2.732276   -0.274090    0.036212
      8          7           0       -1.968009    0.861441   -0.155028
      9          8           0       -3.949078   -0.243079   -0.028282
     10          6           0       -0.575911    0.934592   -0.069356
     11          7           0       -0.062685    2.167277    0.018084
     12          6           0        1.269281    2.248399    0.091670
     13          6           0        2.127945    1.152862    0.089460
     14          1           0        4.107292   -0.634372   -0.802299
     15          1           0        3.997575   -0.753364    0.978695
     16          1           0        4.040722   -2.234633   -0.015722
     17          1           0       -0.664888   -1.777394   -1.346829
     18          1           0        0.047907   -2.379464    0.139485
     19          1           0       -2.541390   -2.385657    0.132773
     20          1           0       -1.816271   -1.512338    1.482461
     21          1           0       -2.462010    1.739986   -0.249393
     22          1           0        1.680704    3.253024    0.159516
     23          1           0        3.196938    1.302312    0.157614
 ---------------------------------------------------------------------

 SCF Done:  E(RM062X) =  -608.942240375     A.U. after    1 cycles

      1  C    Isotropic =   129.2871   Anisotropy =    75.5332

      2  O    Isotropic =   218.1581   Anisotropy =   134.3400

      3  C    Isotropic =    -0.4972   Anisotropy =   173.1249

      4  C    Isotropic =    63.4529   Anisotropy =   155.2623

      5  C    Isotropic =   166.1140   Anisotropy =    11.9636

      6  C    Isotropic =   151.9614   Anisotropy =    24.9832

      7  C    Isotropic =    -3.1014   Anisotropy =   142.9238

      8  N    Isotropic =    80.5832   Anisotropy =    84.4836

      9  O    Isotropic =  -182.4888   Anisotropy =   734.2290

     10  C    Isotropic =    10.6169   Anisotropy =   162.1625

     11  N    Isotropic =   -69.9651   Anisotropy =   501.0424

     12  C    Isotropic =    12.8763   Anisotropy =   195.8484

     13  C    Isotropic =    69.2540   Anisotropy =   164.1355

     14  H    Isotropic =    28.2256   Anisotropy =     8.4747

     15  H    Isotropic =    28.2689   Anisotropy =     8.4453

     16  H    Isotropic =    27.8241   Anisotropy =     8.3671

     17  H    Isotropic =    29.3976   Anisotropy =     8.8394

     18  H    Isotropic =    28.6683   Anisotropy =     8.3236

     19  H    Isotropic =    29.3698   Anisotropy =     7.6433

     20  H    Isotropic =    29.6523   Anisotropy =     7.0533

     21  H    Isotropic =    24.3080   Anisotropy =     6.2754

     22  H    Isotropic =    22.9794   Anisotropy =     6.7368

     23  H    Isotropic =    24.9469   Anisotropy =     8.0209

 The electronic state is 1-A.
 Alpha  occ. eigenvalues --  -19.68069 -19.60199 -14.78626 -14.75063 -10.65416
 Alpha  occ. eigenvalues --  -10.63094 -10.62784 -10.60932 -10.58733 -10.56046
 Alpha  occ. eigenvalues --  -10.55888 -10.55573 -10.55269  -1.21470  -1.16865
 Alpha  occ. eigenvalues --   -1.09114  -1.02262  -0.93612  -0.88659  -0.86124
 Alpha  occ. eigenvalues --   -0.82143  -0.76135  -0.73355  -0.71336  -0.65393
 Alpha  occ. eigenvalues --   -0.64116  -0.59746  -0.57720  -0.57010  -0.56099
 Alpha  occ. eigenvalues --   -0.55165  -0.52666  -0.51693  -0.50819  -0.49814
 Alpha  occ. eigenvalues --   -0.49221  -0.48916  -0.45581  -0.44251  -0.43496
 Alpha  occ. eigenvalues --   -0.42710  -0.41378  -0.37771  -0.34475  -0.33749
 Alpha  occ. eigenvalues --   -0.31438  -0.28653
 Alpha virt. eigenvalues --    0.00312   0.01188   0.05322   0.06316   0.07580
 Alpha virt. eigenvalues --    0.08747   0.10318   0.10706   0.11340   0.11486
 Alpha virt. eigenvalues --    0.12737   0.13682   0.14667   0.14862   0.15933

 Mulliken charges:
               1
     1  C   -0.305956
     2  O   -0.287313
     3  C    0.291728
     4  C   -0.073772
     5  C   -0.319989
     6  C   -0.315460
     7  C    0.301524
     8  N   -0.318643
     9  O   -0.348522
    10  C    0.302237
    11  N   -0.286387
    12  C   -0.076820
    13  C   -0.263142
    14  H    0.157779
    15  H    0.157609
    16  H    0.158260
    17  H    0.167660
    18  H    0.168839
    19  H    0.166165
    20  H    0.169993
    21  H    0.252714
    22  H    0.145312
    23  H    0.156184
 Sum of Mulliken charges =  -0.00000

 Dipole moment (field-independent basis, Debye):
    X=              5.8323    Y=             -1.4270    Z=              0.2408  Tot=              6.0091
 Quadrupole moment (field-independent basis, Debye-Ang):
   XX=            -80.6198   YY=            -73.4472   ZZ=            -76.4933
   XY=             -0.6416   XZ=              0.2171   YZ=             -0.4769

 Normal termination of Gaussian 16 at Wed Aug 14 19:07:47 2024.
