 Gaussian 16, Revision C.01,

 ----------------------------------------------------------------------
 # B3LYP/6-31G(d,p) symmetry=loose empiricaldispersion=GD3BJ int=(grid=
 ultrafine) opt freq=noraman
 ----------------------------------------------------------------------

 ---------
 pyrd6.xyz
 ---------
 Symbolic Z-matrix:
 Charge =  0 Multiplicity = 1

 SCF Done:  E(RB3LYP) =  -3259.98467672     A.U. after   15 cycles
 SCF Done:  E(RB3LYP) =  -3259.99047614     A.U. after   13 cycles
 SCF Done:  E(RB3LYP) =  -3259.99160992     A.U. after   12 cycles
 SCF Done:  E(RB3LYP) =  -3259.99224396     A.U. after   12 cycles
 SCF Done:  E(RB3LYP) =  -3259.99279037     A.U. after   12 cycles
 SCF Done:  E(RB3LYP) =  -3259.99293083     A.U. after   11 cycles
 SCF Done:  E(RB3LYP) =  -3259.99296781     A.U. after   11 cycles
 SCF Done:  E(RB3LYP) =  -3259.99299378     A.U. after    9 cycles
 SCF Done:  E(RB3LYP) =  -3259.99301708     A.U. after   10 cycles
 SCF Done:  E(RB3LYP) =  -3259.99303106     A.U. after   10 cycles
 SCF Done:  E(RB3LYP) =  -3259.99306033     A.U. after    9 cycles
 SCF Done:  E(RB3LYP) =  -3259.99306128     A.U. after    8 cycles
 SCF Done:  E(RB3LYP) =  -3259.99306204     A.U. after    9 cycles
 SCF Done:  E(RB3LYP) =  -3259.99306328     A.U. after    9 cycles
 SCF Done:  E(RB3LYP) =  -3259.99306396     A.U. after    9 cycles
 SCF Done:  E(RB3LYP) =  -3259.99306411     A.U. after    7 cycles
 SCF Done:  E(RB3LYP) =  -3259.99306414     A.U. after    7 cycles
 Optimization completed.
    -- Stationary point found.
 Normal termination of Gaussian 16 at Wed Aug 14 19:16:53 2024.

 ----------------------------------------------------------------------
 #N Geom=AllCheck Guess=TCheck SCRF=Check GenChk RB3LYP/6-31G(d,p) Freq
 ----------------------------------------------------------------------

 Structure from the checkpoint file:  "pyrd6_conf-2.chk"
 ---------
 pyrd6.xyz
 ---------
 Charge =  0 Multiplicity = 1

 SCF Done:  E(RB3LYP) =  -3259.99306414     A.U. after    1 cycles

                      1                      2                      3
                      A                      A                      A
 Frequencies --     15.5541                29.8841                34.1462
 Red. masses --      5.1694                 1.0314                 3.0711
 Frc consts  --      0.0007                 0.0005                 0.0021
 IR Inten    --      0.0404                 0.1153                 0.2874

                      4                      5                      6
                      A                      A                      A
 Frequencies --     74.1301                89.5425               123.6790
 Red. masses --      4.5382                 6.2637                 3.7459
 Frc consts  --      0.0147                 0.0296                 0.0338
 IR Inten    --      0.1620                 0.4049                 0.0074

                      7                      8                      9
                      A                      A                      A
 Frequencies --    135.8776               147.1362               199.9928
 Red. masses --      9.0479                 4.9123                 3.5531
 Frc consts  --      0.0984                 0.0627                 0.0837
 IR Inten    --      0.9016                 0.5075                 1.8387

                     10                     11                     12
                      A                      A                      A
 Frequencies --    210.1262               216.0581               226.6420
 Red. masses --      1.8630                 1.5587                 4.3576
 Frc consts  --      0.0485                 0.0429                 0.1319
 IR Inten    --      0.1100                 0.1884                 7.7358

                     13                     14                     15
                      A                      A                      A
 Frequencies --    243.7754               256.1967               278.6372
 Red. masses --      6.6017                 1.0576                 1.0651
 Frc consts  --      0.2311                 0.0409                 0.0487
 IR Inten    --      1.2254                 0.1366                 0.0050

                     16                     17                     18
                      A                      A                      A
 Frequencies --    315.4750               327.9255               352.7882
 Red. masses --      6.0028                 3.4576                 2.4877
 Frc consts  --      0.3520                 0.2191                 0.1824
 IR Inten    --      1.4053                 6.6463                 1.8715

                     19                     20                     21
                      A                      A                      A
 Frequencies --    398.7735               404.6016               443.1442
 Red. masses --      4.1074                 3.6450                 3.3103
 Frc consts  --      0.3848                 0.3516                 0.3830
 IR Inten    --      7.3343                 2.3310                 5.3382

                     22                     23                     24
                      A                      A                      A
 Frequencies --    460.0995               475.0706               525.8007
 Red. masses --      2.9110                 3.0337                 5.2892
 Frc consts  --      0.3631                 0.4034                 0.8616
 IR Inten    --      3.1107                 5.6097                 4.2370

                     25                     26                     27
                      A                      A                      A
 Frequencies --    555.0199               626.0915               667.8320
 Red. masses --      4.1268                 3.2924                 4.1979
 Frc consts  --      0.7490                 0.7604                 1.1031
 IR Inten    --      3.7435                 1.6296                 7.4169

                     28                     29                     30
                      A                      A                      A
 Frequencies --    669.6622               706.5645               748.6521
 Red. masses --      1.3204                 6.8549                 4.2823
 Frc consts  --      0.3489                 2.0163                 1.4141
 IR Inten    --     58.1733                62.3287                16.9923

                     31                     32                     33
                      A                      A                      A
 Frequencies --    756.4334               800.8016               852.6784
 Red. masses --      8.5282                 3.7484                 1.9407
 Frc consts  --      2.8751                 1.4163                 0.8313
 IR Inten    --     29.9782                 0.4682                29.6117

                     34                     35                     36
                      A                      A                      A
 Frequencies --    856.4555               878.7985               886.6169
 Red. masses --      2.6772                 4.4136                 1.3736
 Frc consts  --      1.1570                 2.0083                 0.6362
 IR Inten    --     27.0128                45.9180                 0.4349

                     37                     38                     39
                      A                      A                      A
 Frequencies --    933.9894               934.8837               976.7317
 Red. masses --      1.6183                 1.6146                 1.1988
 Frc consts  --      0.8318                 0.8315                 0.6738
 IR Inten    --      0.1216                 0.1086                 0.2331

                     40                     41                     42
                      A                      A                      A
 Frequencies --    990.4152              1008.1788              1036.5415
 Red. masses --      3.6226                 5.0495                 1.7696
 Frc consts  --      2.0936                 3.0240                 1.1202
 IR Inten    --      4.7724                22.9660                31.1809

                     43                     44                     45
                      A                      A                      A
 Frequencies --   1058.4072              1060.9169              1063.1190
 Red. masses --      1.7140                 1.4070                 1.5555
 Frc consts  --      1.1313                 0.9331                 1.0358
 IR Inten    --      1.9846                 0.0924                 7.9770

                     46                     47                     48
                      A                      A                      A
 Frequencies --   1080.6828              1156.6211              1208.6151
 Red. masses --      2.4191                 1.7375                 2.1836
 Frc consts  --      1.6645                 1.3695                 1.8793
 IR Inten    --     20.2331               146.4845               434.0386

                     49                     50                     51
                      A                      A                      A
 Frequencies --   1223.8206              1281.5610              1292.1102
 Red. masses --      1.8725                 2.6780                 2.7655
 Frc consts  --      1.6523                 2.5914                 2.7204
 IR Inten    --     30.8727                15.6958                34.4252

                     52                     53                     54
                      A                      A                      A
 Frequencies --   1300.9611              1342.3285              1379.2562
 Red. masses --      2.5671                 4.3532                 4.5726
 Frc consts  --      2.5598                 4.6214                 5.1251
 IR Inten    --     16.8984                36.8770               744.6589

                     55                     56                     57
                      A                      A                      A
 Frequencies --   1411.9897              1413.6672              1417.9821
 Red. masses --      1.2952                 1.3410                 2.1709
 Frc consts  --      1.5214                 1.5789                 2.5718
 IR Inten    --     19.6677                64.2035                 5.8100

                     58                     59                     60
                      A                      A                      A
 Frequencies --   1424.2075              1438.9602              1466.7154
 Red. masses --      1.3449                 1.2414                 3.1939
 Frc consts  --      1.6072                 1.5145                 4.0482
 IR Inten    --      8.7547                28.5078               115.7310

                     61                     62                     63
                      A                      A                      A
 Frequencies --   1483.3026              1498.2966              1503.0399
 Red. masses --      1.0457                 1.1354                 1.1070
 Frc consts  --      1.3556                 1.5018                 1.4734
 IR Inten    --      0.6925                62.4706                25.9199

                     64                     65                     66
                      A                      A                      A
 Frequencies --   1504.9986              1505.1106              1509.6183
 Red. masses --      1.0580                 1.0658                 1.0778
 Frc consts  --      1.4119                 1.4226                 1.4472
 IR Inten    --      4.4316                11.9999                13.1548

                     67                     68                     69
                      A                      A                      A
 Frequencies --   1520.0158              1537.3135              1543.9057
 Red. masses --      1.0528                 2.1668                 1.1750
 Frc consts  --      1.4331                 3.0171                 1.6502
 IR Inten    --      1.0999                95.9438                74.8454

                     70                     71                     72
                      A                      A                      A
 Frequencies --   1611.9962              1650.0966              1809.5609
 Red. masses --      5.8200                 6.8263                 8.7925
 Frc consts  --      8.9105                10.9510                16.9633
 IR Inten    --    204.8062               284.1084               561.1493

                     73                     74                     75
                      A                      A                      A
 Frequencies --   3047.9724              3052.8811              3056.6829
 Red. masses --      1.0390                 1.0352                 1.0378
 Frc consts  --      5.6870                 5.6843                 5.7131
 IR Inten    --     15.1257                10.1168                21.6705

                     76                     77                     78
                      A                      A                      A
 Frequencies --   3062.7359              3111.5786              3123.6243
 Red. masses --      1.0385                 1.0972                 1.1028
 Frc consts  --      5.7393                 6.2590                 6.3398
 IR Inten    --     14.6481                13.5597                 3.9038

                     79                     80                     81
                      A                      A                      A
 Frequencies --   3125.6994              3131.6332              3138.1507
 Red. masses --      1.1025                 1.1033                 1.1024
 Frc consts  --      6.3462                 6.3752                 6.3962
 IR Inten    --     14.7198                30.5070                61.7597

                     82                     83                     84
                      A                      A                      A
 Frequencies --   3138.9308              3173.0020              3175.8500
 Red. masses --      1.1035                 1.1005                 1.0999
 Frc consts  --      6.4057                 6.5281                 6.5364
 IR Inten    --      4.4898                 0.5434                 7.1129

                     85                     86                     87
                      A                      A                      A
 Frequencies --   3231.0105              3281.4182              3627.7262
 Red. masses --      1.0928                 1.0909                 1.0763
 Frc consts  --      6.7216                 6.9210                 8.3457
 IR Inten    --      0.2707                 3.3077                69.2368

 - Thermochemistry -
 -------------------
 Temperature   298.150 Kelvin.  Pressure   1.00000 Atm.
 Atom     1 has atomic number 35 and mass  78.91834

 Molecular mass:   286.03169 amu.
 Principal axes and moments of inertia in atomic units:
                                 1                 2                 3
     Eigenvalues --         2063.556605      11094.303149      12742.373094
           X                   0.999941          0.010854          0.000021
           Y                  -0.010854          0.999941         -0.000459
           Z                  -0.000026          0.000459          1.000000
 This molecule is an asymmetric top.
 Rotational symmetry number  1.
 Warning -- assumption of classical behavior for rotation
           may cause significant error
 Rotational temperatures (Kelvin)      0.04197     0.00781     0.00680
 Rotational constants (GHZ):           0.87458     0.16267     0.14163
 Zero-point vibrational energy     658242.0 (Joules/Mol)
                                  157.32363 (Kcal/Mol)
 Warning -- explicit consideration of  25 degrees of freedom as
           vibrations may cause significant error
 Vibrational temperatures:     22.38    43.00    49.13   106.66   128.83
          (Kelvin)            177.95   195.50   211.70   287.75   302.32
                              310.86   326.09   350.74   368.61   400.90
                              453.90   471.81   507.58   573.75   582.13
                              637.59   661.98   683.52   756.51   798.55
                              900.81   960.86   963.49  1016.59  1077.14
                             1088.34  1152.17  1226.81  1232.25  1264.40
                             1275.64  1343.80  1345.09  1405.30  1424.99
                             1450.54  1491.35  1522.81  1526.42  1529.59
                             1554.86  1664.12  1738.93  1760.80  1843.88
                             1859.06  1871.79  1931.31  1984.44  2031.54
                             2033.95  2040.16  2049.12  2070.34  2110.28
                             2134.14  2155.71  2162.54  2165.36  2165.52
                             2172.00  2186.96  2211.85  2221.34  2319.30
                             2374.12  2603.55  4385.35  4392.41  4397.88
                             4406.59  4476.87  4494.20  4497.18  4505.72
                             4515.10  4516.22  4565.24  4569.34  4648.70
                             4721.23  5219.49

 Zero-point correction=                           0.250711 (Hartree/Particle)
 Thermal correction to Energy=                    0.267814
 Thermal correction to Enthalpy=                  0.268758
 Thermal correction to Gibbs Free Energy=         0.203171
 Sum of electronic and zero-point Energies=          -3259.742353
 Sum of electronic and thermal Energies=             -3259.725250
 Sum of electronic and thermal Enthalpies=           -3259.724306
 Sum of electronic and thermal Free Energies=        -3259.789893

                     E (Thermal)             CV                S
                      KCal/Mol        Cal/Mol-Kelvin    Cal/Mol-Kelvin
 Total                  168.056             62.403            138.039
 Electronic               0.000              0.000              0.000
 Translational            0.889              2.981             42.851
 Rotational               0.889              2.981             34.033
 Vibrational            166.278             56.441             61.155
 Vibration     1          0.593              1.986              7.133
 Vibration     2          0.594              1.984              5.837
 Vibration     3          0.594              1.983              5.573
 Vibration     4          0.599              1.966              4.041
 Vibration     5          0.602              1.957              3.670
 Vibration     6          0.610              1.929              3.042
 Vibration     7          0.614              1.918              2.861
 Vibration     8          0.617              1.906              2.709
 Vibration     9          0.638              1.840              2.133
 Vibration    10          0.642              1.825              2.043
 Vibration    11          0.645              1.817              1.992
 Vibration    12          0.650              1.800              1.905
 Vibration    13          0.659              1.773              1.775
 Vibration    14          0.666              1.752              1.688
 Vibration    15          0.679              1.713              1.542
 Vibration    16          0.703              1.644              1.333
 Vibration    17          0.711              1.620              1.270
 Vibration    18          0.729              1.570              1.154
 Vibration    19          0.765              1.473              0.967
 Vibration    20          0.770              1.460              0.946
 Vibration    21          0.803              1.376              0.817
 Vibration    22          0.818              1.339              0.766
 Vibration    23          0.832              1.305              0.723
 Vibration    24          0.881              1.193              0.597
 Vibration    25          0.910              1.129              0.534

                           ! Non-Optimized Parameters !
 Normal termination of Gaussian 16 at Wed Aug 14 19:21:03 2024.

 ----------------------------------------------------------------------
 # M062X/def2tzvp int=(grid=ultrafine) pop=nbo7 polar prop=efg volume g
 uess=read geom=check
 ----------------------------------------------------------------------

 ---------
 pyrd6.xyz
 ---------
 Structure from the checkpoint file:  "pyrd6_conf-2.chk"
 Charge =  0 Multiplicity = 1

 SCF Done:  E(RM062X) =  -3262.37117440     A.U. after   12 cycles

  Exact polarizability:     237.281       1.340     178.489       0.047      -0.339     113.617
 Approx polarizability:     252.939       4.033     228.363       0.028      -0.231     151.682

 Summary of Natural Population Analysis:

                                     Natural Population
             Natural    ---------------------------------------------
  Atom No    Charge        Core      Valence    Rydberg      Total
 --------------------------------------------------------------------
   Br  1    0.03999     27.99996     6.94966    0.01039    34.96001
    C  2    0.18351      1.99999     3.78357    0.03292     5.81649
    C  3   -0.31334      1.99999     4.29481    0.01855     6.31334
    C  4    0.05823      1.99999     3.92728    0.01451     5.94177
    C  5   -0.63355      1.99999     4.62394    0.00962     6.63355
    C  6   -0.30221      1.99999     4.28646    0.01576     6.30221
    C  7    0.38680      1.99999     3.59230    0.02091     5.61320
    N  8   -0.61687      2.00000     5.59556    0.02132     7.61687
    C  9    0.90809      1.99999     3.05624    0.03568     5.09191
    O 10   -0.54537      2.00000     6.52337    0.02200     8.54537
    C 11    0.28202      1.99999     3.70415    0.01384     5.71798
    C 12   -0.64412      1.99999     4.63335    0.01078     6.64412
    C 13   -0.61862      1.99999     4.60781    0.01082     6.61862
    C 14   -0.64413      1.99999     4.63335    0.01079     6.64413
    O 15   -0.63695      2.00000     6.61198    0.02498     8.63695
    N 16   -0.48349      1.99999     5.44699    0.03650     7.48349
    H 17    0.23422      0.00000     0.76444    0.00133     0.76578
    H 18    0.22126      0.00000     0.77764    0.00110     0.77874
    H 19    0.22418      0.00000     0.77474    0.00108     0.77582
    H 20    0.23122      0.00000     0.76759    0.00119     0.76878
    H 21    0.24806      0.00000     0.75041    0.00153     0.75194
    H 22    0.43092      0.00000     0.56728    0.00180     0.56908
    H 23    0.21532      0.00000     0.78378    0.00090     0.78468
    H 24    0.21362      0.00000     0.78526    0.00111     0.78638
    H 25    0.24316      0.00000     0.75570    0.00114     0.75684
    H 26    0.21729      0.00000     0.78183    0.00088     0.78271
    H 27    0.21454      0.00000     0.78431    0.00115     0.78546
    H 28    0.21411      0.00000     0.78474    0.00116     0.78589
    H 29    0.24320      0.00000     0.75565    0.00114     0.75680
    H 30    0.21362      0.00000     0.78527    0.00111     0.78638
    H 31    0.21530      0.00000     0.78380    0.00090     0.78470
 ====================================================================
 * Total *  0.00000     57.99985    87.67324    0.32691   146.00000

 Normal termination of Gaussian 16 at Wed Aug 14 19:34:25 2024.
 Gaussian 16:  ES64L-G16RevC.01  3-Jul-2019

 --------------------------------------------------------------------
 # M062X/def2tzvp int=(grid=ultrafine) nmr=giao guess=read geom=check
 --------------------------------------------------------------------

 ---------
 pyrd6.xyz
 ---------
 Structure from the checkpoint file:  "pyrd6_conf-2.chk"
 Charge =  0 Multiplicity = 1

                         Standard orientation:
 ---------------------------------------------------------------------
 Center     Atomic      Atomic             Coordinates (Angstroms)
 Number     Number       Type             X           Y           Z
 ---------------------------------------------------------------------
      1         35           0        4.273818   -0.702089   -0.001852
      2          6           0        2.506491    0.052848    0.001249
      3          6           0        2.379337    1.437279    0.009914
      4          6           0        1.080312    1.956807    0.012270
      5          6           0        0.850818    3.445613   -0.010756
      6          6           0       -0.000509    1.073228    0.011676
      7          6           0        0.259421   -0.302997    0.002889
      8          7           0       -0.706063   -1.311424    0.001860
      9          6           0       -2.087965   -1.313386   -0.000428
     10          8           0       -2.598405   -0.070917    0.002182
     11          6           0       -4.059788    0.138408   -0.000446
     12          6           0       -4.663708   -0.450091   -1.275238
     13          6           0       -4.170611    1.662038    0.003991
     14          6           0       -4.669518   -0.457908    1.267934
     15          8           0       -2.714848   -2.356744   -0.004258
     16          7           0        1.507763   -0.804412   -0.002047
     17          1           0        3.252005    2.077641    0.016033
     18          1           0       -0.127823    3.703427    0.401457
     19          1           0        1.619162    3.974812    0.559219
     20          1           0        0.887926    3.822470   -1.039500
     21          1           0       -1.015385    1.437763    0.019396
     22          1           0       -0.309835   -2.242201   -0.001145
     23          1           0       -5.723969   -0.185299   -1.329574
     24          1           0       -4.163250   -0.037508   -2.156256
     25          1           0       -4.568797   -1.535317   -1.287234
     26          1           0       -5.222765    1.959061    0.001833
     27          1           0       -3.689636    2.086162   -0.881942
     28          1           0       -3.695098    2.080514    0.895585
     29          1           0       -4.575022   -1.543215    1.273561
     30          1           0       -4.172793   -0.051064    2.153723
     31          1           0       -5.729905   -0.193013    1.319268
 ---------------------------------------------------------------------

 SCF Done:  E(RM062X) =  -3262.37117440     A.U. after    1 cycles

      1  Br   Isotropic =  1908.4562   Anisotropy =  1530.1987

      2  C    Isotropic =     4.0471   Anisotropy =   115.9954

      3  C    Isotropic =    43.9899   Anisotropy =   144.6324

      4  C    Isotropic =     7.6647   Anisotropy =   248.9191

      5  C    Isotropic =   163.1912   Anisotropy =    40.3634

      6  C    Isotropic =    57.8774   Anisotropy =   161.2212

      7  C    Isotropic =    12.1788   Anisotropy =   161.2324

      8  N    Isotropic =   103.8227   Anisotropy =    89.3782

      9  C    Isotropic =    18.4080   Anisotropy =    73.8979

     10  O    Isotropic =   100.9545   Anisotropy =   118.6886

     11  C    Isotropic =    97.6028   Anisotropy =    82.6913

     12  C    Isotropic =   158.9249   Anisotropy =    42.3256

     13  C    Isotropic =   152.4493   Anisotropy =    49.7503

     14  C    Isotropic =   158.9033   Anisotropy =    42.3529

     15  O    Isotropic =   -40.8939   Anisotropy =   443.7402

     16  N    Isotropic =   -85.2726   Anisotropy =   444.4874

     17  H    Isotropic =    24.4148   Anisotropy =    11.6175

     18  H    Isotropic =    29.7140   Anisotropy =     7.1375

     19  H    Isotropic =    29.6219   Anisotropy =     7.9916

     20  H    Isotropic =    29.4513   Anisotropy =     8.0081

     21  H    Isotropic =    23.7851   Anisotropy =    13.3658

     22  H    Isotropic =    24.9585   Anisotropy =     7.0690

     23  H    Isotropic =    30.8933   Anisotropy =     9.1378

     24  H    Isotropic =    30.7243   Anisotropy =     7.3613

     25  H    Isotropic =    29.0362   Anisotropy =     6.7490

     26  H    Isotropic =    30.7274   Anisotropy =     8.5792

     27  H    Isotropic =    30.3033   Anisotropy =     7.1718

     28  H    Isotropic =    30.3068   Anisotropy =     7.1826

     29  H    Isotropic =    29.0317   Anisotropy =     6.7512

     30  H    Isotropic =    30.7210   Anisotropy =     7.3604

     31  H    Isotropic =    30.8910   Anisotropy =     9.1334

 The electronic state is 1-A.
 Alpha  occ. eigenvalues -- -485.37082 -63.35574 -57.17517 -57.17284 -57.17270
 Alpha  occ. eigenvalues --  -19.67819 -19.61087 -14.79592 -14.76489 -10.71024
 Alpha  occ. eigenvalues --  -10.64338 -10.64008 -10.62321 -10.58462 -10.55845
 Alpha  occ. eigenvalues --  -10.55550 -10.55328 -10.54254 -10.53321 -10.53319
 Alpha  occ. eigenvalues --   -9.02223  -6.84627  -6.83766  -6.83720  -2.88003
 Alpha  occ. eigenvalues --   -2.87699  -2.87650  -2.86849  -2.86848  -1.24371
 Alpha  occ. eigenvalues --   -1.14831  -1.10583  -1.03763  -0.93877  -0.92470
 Alpha  occ. eigenvalues --   -0.90052  -0.83359  -0.81931  -0.79966  -0.79545
 Alpha  occ. eigenvalues --   -0.76993  -0.72049  -0.69106  -0.63934  -0.61497
 Alpha  occ. eigenvalues --   -0.60692  -0.58109  -0.57461  -0.56638  -0.55046
 Alpha  occ. eigenvalues --   -0.53041  -0.52951  -0.51669  -0.49955  -0.49348
 Alpha  occ. eigenvalues --   -0.49201  -0.47982  -0.46809  -0.46362  -0.46180
 Alpha  occ. eigenvalues --   -0.44496  -0.44324  -0.43092  -0.43058  -0.41032
 Alpha  occ. eigenvalues --   -0.40860  -0.38021  -0.36678  -0.36182  -0.35369
 Alpha  occ. eigenvalues --   -0.34714  -0.33459  -0.28977
 Alpha virt. eigenvalues --   -0.00766  -0.00013   0.03915   0.04716   0.06814
 Alpha virt. eigenvalues --    0.08401   0.08649   0.09831   0.10244   0.10674
 Alpha virt. eigenvalues --    0.11359   0.12173   0.12282   0.13435   0.14207

 Mulliken charges:
               1
     1  Br  -0.100391
     2  C    0.130688
     3  C   -0.245944
     4  C    0.132209
     5  C   -0.479979
     6  C   -0.262726
     7  C    0.330424
     8  N   -0.347434
     9  C    0.499356
    10  O   -0.304074
    11  C    0.097459
    12  C   -0.443682
    13  C   -0.459429
    14  C   -0.443782
    15  O   -0.403940
    16  N   -0.276881
    17  H    0.169299
    18  H    0.149147
    19  H    0.156658
    20  H    0.170026
    21  H    0.202168
    22  H    0.266458
    23  H    0.149040
    24  H    0.152633
    25  H    0.188748
    26  H    0.160148
    27  H    0.162312
    28  H    0.161006
    29  H    0.188778
    30  H    0.152644
    31  H    0.149060
 Sum of Mulliken charges =  -0.00000

 Dipole moment (field-independent basis, Debye):
    X=             -2.4872    Y=              4.5982    Z=             -0.0407  Tot=              5.2279
 Quadrupole moment (field-independent basis, Debye-Ang):
   XX=           -104.6728   YY=           -107.0983   ZZ=           -109.3655
   XY=             -3.2349   XZ=             -0.0320   YZ=             -0.1574

 Normal termination of Gaussian 16 at Wed Aug 14 19:39:30 2024.
