 Gaussian 16, Revision C.01,

 ----------------------------------------------------------------------
 # B3LYP/6-31G(d,p) symmetry=loose empiricaldispersion=GD3BJ int=(grid=
 ultrafine) opt freq=noraman
 ----------------------------------------------------------------------

 ---------
 pyrd6.xyz
 ---------
 Symbolic Z-matrix:
 Charge =  0 Multiplicity = 1

 SCF Done:  E(RB3LYP) =  -3259.98975343     A.U. after   15 cycles
 SCF Done:  E(RB3LYP) =  -3259.99553210     A.U. after   12 cycles
 SCF Done:  E(RB3LYP) =  -3259.99653017     A.U. after   12 cycles
 SCF Done:  E(RB3LYP) =  -3259.99674317     A.U. after   11 cycles
 SCF Done:  E(RB3LYP) =  -3259.99676867     A.U. after   10 cycles
 SCF Done:  E(RB3LYP) =  -3259.99677433     A.U. after    8 cycles
 SCF Done:  E(RB3LYP) =  -3259.99677546     A.U. after    8 cycles
 SCF Done:  E(RB3LYP) =  -3259.99677641     A.U. after    8 cycles
 SCF Done:  E(RB3LYP) =  -3259.99677651     A.U. after    6 cycles
 SCF Done:  E(RB3LYP) =  -3259.99677657     A.U. after    6 cycles
 SCF Done:  E(RB3LYP) =  -3259.99677807     A.U. after    7 cycles
 SCF Done:  E(RB3LYP) =  -3259.99677831     A.U. after    7 cycles
 SCF Done:  E(RB3LYP) =  -3259.99677840     A.U. after    7 cycles
 SCF Done:  E(RB3LYP) =  -3259.99677846     A.U. after    6 cycles
 SCF Done:  E(RB3LYP) =  -3259.99677850     A.U. after    7 cycles
 SCF Done:  E(RB3LYP) =  -3259.99677851     A.U. after    6 cycles
 SCF Done:  E(RB3LYP) =  -3259.99677851     A.U. after    6 cycles
 Optimization completed.
    -- Stationary point found.
 Normal termination of Gaussian 16 at Wed Aug 14 19:13:21 2024.

 ----------------------------------------------------------------------
 #N Geom=AllCheck Guess=TCheck SCRF=Check GenChk RB3LYP/6-31G(d,p) Freq
 ----------------------------------------------------------------------

 Structure from the checkpoint file:  "pyrd6_conf-1.chk"
 ---------
 pyrd6.xyz
 ---------
 Charge =  0 Multiplicity = 1

 SCF Done:  E(RB3LYP) =  -3259.99677851     A.U. after    1 cycles

                      1                      2                      3
                      A                      A                      A
 Frequencies --     26.0780                32.4737                38.9617
 Red. masses --      3.8148                 1.0212                 3.9581
 Frc consts  --      0.0015                 0.0006                 0.0035
 IR Inten    --      0.0025                 0.0807                 1.9687

                      4                      5                      6
                      A                      A                      A
 Frequencies --     70.2512                78.9707               124.1764
 Red. masses --      5.4074                 6.3320                 3.8843
 Frc consts  --      0.0157                 0.0233                 0.0353
 IR Inten    --      0.9368                 1.5883                 1.4513

                      7                      8                      9
                      A                      A                      A
 Frequencies --    149.3902               151.0731               197.7851
 Red. masses --      6.2113                 5.0119                 3.5014
 Frc consts  --      0.0817                 0.0674                 0.0807
 IR Inten    --      1.0149                 0.6362                 6.5107

                     10                     11                     12
                      A                      A                      A
 Frequencies --    208.6432               215.5439               239.7186
 Red. masses --      1.3366                 2.2882                 4.6843
 Frc consts  --      0.0343                 0.0626                 0.1586
 IR Inten    --      0.3014                 0.0076                 2.3186

                     13                     14                     15
                      A                      A                      A
 Frequencies --    246.8167               257.3992               274.6544
 Red. masses --      6.1562                 1.2090                 1.0808
 Frc consts  --      0.2210                 0.0472                 0.0480
 IR Inten    --      1.1608                 0.2645                 0.0486

                     16                     17                     18
                      A                      A                      A
 Frequencies --    280.1772               328.2389               352.5829
 Red. masses --      3.3320                 3.5035                 2.4971
 Frc consts  --      0.1541                 0.2224                 0.1829
 IR Inten    --      1.7622                 6.8082                 1.5310

                     19                     20                     21
                      A                      A                      A
 Frequencies --    367.6514               423.5249               455.4373
 Red. masses --      5.5385                 2.8921                 2.8495
 Frc consts  --      0.4411                 0.3056                 0.3482
 IR Inten    --     17.5401                 0.6098                 1.5434

                     22                     23                     24
                      A                      A                      A
 Frequencies --    459.6396               475.9179               526.0406
 Red. masses --      2.9083                 3.7173                 5.3003
 Frc consts  --      0.3620                 0.4961                 0.8641
 IR Inten    --      2.9014                 3.1921                 4.3445

                     25                     26                     27
                      A                      A                      A
 Frequencies --    556.4091               618.9714               641.6068
 Red. masses --      4.1627                 1.5010                 4.6551
 Frc consts  --      0.7593                 0.3388                 1.1291
 IR Inten    --      3.3430                43.0762                 6.5501

                     28                     29                     30
                      A                      A                      A
 Frequencies --    642.8170               751.6226               756.8519
 Red. masses --      2.5141                 4.3953                 9.7775
 Frc consts  --      0.6121                 1.4630                 3.2999
 IR Inten    --     42.0310                 1.2723                14.7763

                     31                     32                     33
                      A                      A                      A
 Frequencies --    771.5522               789.0826               854.1602
 Red. masses --      5.6967                 4.9265                 4.7620
 Frc consts  --      1.9981                 1.8073                 2.0470
 IR Inten    --     27.7657                 4.2548                92.4690

                     34                     35                     36
                      A                      A                      A
 Frequencies --    861.6414               892.2275               909.2524
 Red. masses --      1.4020                 4.1320                 1.3429
 Frc consts  --      0.6133                 1.9380                 0.6542
 IR Inten    --     27.2522                34.5415                 4.6854

                     37                     38                     39
                      A                      A                      A
 Frequencies --    933.0253               935.8327               975.9901
 Red. masses --      1.6224                 1.6145                 1.1985
 Frc consts  --      0.8321                 0.8331                 0.6727
 IR Inten    --      0.1119                 0.8558                 0.2105

                     40                     41                     42
                      A                      A                      A
 Frequencies --    989.5516              1007.9834              1037.3519
 Red. masses --      3.3252                 6.2518                 1.6089
 Frc consts  --      1.9184                 3.7425                 1.0201
 IR Inten    --     11.2551                16.7841                14.5959

                     43                     44                     45
                      A                      A                      A
 Frequencies --   1060.8306              1062.6250              1063.9076
 Red. masses --      1.4064                 1.5040                 1.5609
 Frc consts  --      0.9325                 1.0006                 1.0410
 IR Inten    --      0.3191                 1.0785                 9.6791

                     46                     47                     48
                      A                      A                      A
 Frequencies --   1096.9315              1165.2999              1200.9238
 Red. masses --      3.2225                 1.6954                 2.5071
 Frc consts  --      2.2846                 1.3564                 2.1304
 IR Inten    --     24.4476                16.7761               917.2224

                     49                     50                     51
                      A                      A                      A
 Frequencies --   1219.0203              1252.7858              1280.1685
 Red. masses --      1.8644                 2.1476                 2.6788
 Frc consts  --      1.6324                 1.9859                 2.5865
 IR Inten    --     26.0767               187.7224                15.3175

                     52                     53                     54
                      A                      A                      A
 Frequencies --   1294.6826              1326.7632              1340.5173
 Red. masses --      2.6716                 3.9158                 4.5395
 Frc consts  --      2.6385                 4.0612                 4.8062
 IR Inten    --     16.5699               158.2438                 6.2747

                     55                     56                     57
                      A                      A                      A
 Frequencies --   1411.5321              1414.1257              1423.7697
 Red. masses --      1.2934                 1.3032                 1.2397
 Frc consts  --      1.5183                 1.5355                 1.4807
 IR Inten    --     17.9807                24.0733                 9.9414

                     58                     59                     60
                      A                      A                      A
 Frequencies --   1439.2805              1448.8192              1467.7385
 Red. masses --      1.2434                 3.3974                 3.4327
 Frc consts  --      1.5176                 4.2017                 4.3570
 IR Inten    --     30.7173                80.0893               298.8569

                     61                     62                     63
                      A                      A                      A
 Frequencies --   1483.9298              1498.5604              1502.5766
 Red. masses --      1.0459                 1.1784                 1.0720
 Frc consts  --      1.3570                 1.5592                 1.4260
 IR Inten    --      0.5443                99.0541                11.4748

                     64                     65                     66
                      A                      A                      A
 Frequencies --   1504.3356              1504.8613              1510.1944
 Red. masses --      1.0468                 1.0524                 1.0758
 Frc consts  --      1.3958                 1.4042                 1.4456
 IR Inten    --      0.9335                 0.4004                10.9922

                     67                     68                     69
                      A                      A                      A
 Frequencies --   1519.8050              1541.9073              1565.3623
 Red. masses --      1.0534                 1.0648                 2.6936
 Frc consts  --      1.4335                 1.4916                 3.8888
 IR Inten    --      0.8561                 4.2583               698.1319

                     70                     71                     72
                      A                      A                      A
 Frequencies --   1611.4431              1651.4268              1802.7950
 Red. masses --      5.8660                 6.3412                10.5773
 Frc consts  --      8.9747                10.1893                20.2544
 IR Inten    --    295.8869               179.7204               196.9825

                     73                     74                     75
                      A                      A                      A
 Frequencies --   3048.3734              3054.9607              3056.5155
 Red. masses --      1.0392                 1.0353                 1.0377
 Frc consts  --      5.6897                 5.6931                 5.7117
 IR Inten    --     15.3998                 8.1800                22.2094

                     76                     77                     78
                      A                      A                      A
 Frequencies --   3063.2191              3112.3912              3123.7428
 Red. masses --      1.0380                 1.0968                 1.1027
 Frc consts  --      5.7384                 6.2600                 6.3395
 IR Inten    --     21.3354                13.9581                 6.7088

                     79                     80                     81
                      A                      A                      A
 Frequencies --   3125.6754              3136.4679              3138.7506
 Red. masses --      1.1025                 1.1034                 1.1026
 Frc consts  --      6.3462                 6.3956                 6.3999
 IR Inten    --     17.3464                27.4284                44.0201

                     82                     83                     84
                      A                      A                      A
 Frequencies --   3140.2769              3170.4857              3173.4227
 Red. masses --      1.1037                 1.1006                 1.1000
 Frc consts  --      6.4127                 6.5181                 6.5266
 IR Inten    --     12.4810                 0.6270                12.3363

                     85                     86                     87
                      A                      A                      A
 Frequencies --   3230.3276              3261.3486              3632.6066
 Red. masses --      1.0927                 1.0921                 1.0769
 Frc consts  --      6.7183                 6.8442                 8.3724
 IR Inten    --      0.4207                 6.5591                55.2664

 - Thermochemistry -
 -------------------
 Temperature   298.150 Kelvin.  Pressure   1.00000 Atm.
 Atom     1 has atomic number 35 and mass  78.91834

 Molecular mass:   286.03169 amu.
 Principal axes and moments of inertia in atomic units:
                                 1                 2                 3
     Eigenvalues --         2290.575467      11922.556088      13797.838625
           X                   0.999322         -0.036819         -0.000007
           Y                   0.036819          0.999322          0.000480
           Z                  -0.000011         -0.000480          1.000000
 This molecule is an asymmetric top.
 Rotational symmetry number  1.
 Warning -- assumption of classical behavior for rotation
           may cause significant error
 Rotational temperatures (Kelvin)      0.03781     0.00726     0.00628
 Rotational constants (GHZ):           0.78790     0.15137     0.13080
 Zero-point vibrational energy     658200.7 (Joules/Mol)
                                  157.31374 (Kcal/Mol)
 Warning -- explicit consideration of  26 degrees of freedom as
           vibrations may cause significant error
 Vibrational temperatures:     37.52    46.72    56.06   101.08   113.62
          (Kelvin)            178.66   214.94   217.36   284.57   300.19
                              310.12   344.90   355.11   370.34   395.17
                              403.11   472.26   507.29   528.97   609.36
                              655.27   661.32   684.74   756.86   800.55
                              890.56   923.13   924.87  1081.42  1088.94
                             1110.09  1135.31  1228.95  1239.71  1283.72
                             1308.21  1342.42  1346.45  1404.23  1423.74
                             1450.26  1492.52  1526.30  1528.88  1530.73
                             1578.24  1676.61  1727.86  1753.90  1802.48
                             1841.88  1862.76  1908.92  1928.71  2030.88
                             2034.61  2048.49  2070.80  2084.53  2111.75
                             2135.04  2156.09  2161.87  2164.40  2165.16
                             2172.83  2186.66  2218.46  2252.21  2318.51
                             2376.03  2593.82  4385.93  4395.41  4397.64
                             4407.29  4478.04  4494.37  4497.15  4512.68
                             4515.96  4518.16  4561.62  4565.85  4647.72
                             4692.35  5226.51

 Zero-point correction=                           0.250695 (Hartree/Particle)
 Thermal correction to Energy=                    0.267789
 Thermal correction to Enthalpy=                  0.268733
 Thermal correction to Gibbs Free Energy=         0.203591
 Sum of electronic and zero-point Energies=          -3259.746083
 Sum of electronic and thermal Energies=             -3259.728989
 Sum of electronic and thermal Enthalpies=           -3259.728045
 Sum of electronic and thermal Free Energies=        -3259.793187

                     E (Thermal)             CV                S
                      KCal/Mol        Cal/Mol-Kelvin    Cal/Mol-Kelvin
 Total                  168.040             62.407            137.102
 Electronic               0.000              0.000              0.000
 Translational            0.889              2.981             42.851
 Rotational               0.889              2.981             34.287
 Vibrational            166.263             56.445             59.964
 Vibration     1          0.593              1.985              6.107
 Vibration     2          0.594              1.983              5.672
 Vibration     3          0.594              1.981              5.311
 Vibration     4          0.598              1.968              4.146
 Vibration     5          0.600              1.963              3.916
 Vibration     6          0.610              1.929              3.034
 Vibration     7          0.618              1.903              2.680
 Vibration     8          0.618              1.901              2.659
 Vibration     9          0.637              1.843              2.154
 Vibration    10          0.642              1.828              2.056
 Vibration    11          0.645              1.817              1.996
 Vibration    12          0.657              1.780              1.805
 Vibration    13          0.661              1.768              1.753
 Vibration    14          0.667              1.750              1.679
 Vibration    15          0.677              1.720              1.567
 Vibration    16          0.680              1.710              1.533
 Vibration    17          0.711              1.619              1.269
 Vibration    18          0.729              1.570              1.155
 Vibration    19          0.740              1.539              1.090
 Vibration    20          0.786              1.419              0.880
 Vibration    21          0.814              1.349              0.780
 Vibration    22          0.818              1.340              0.767
 Vibration    23          0.833              1.303              0.721
 Vibration    24          0.881              1.192              0.596
 Vibration    25          0.912              1.126              0.531
 Vibration    26          0.979              0.992              0.418

 Optimization completed.
    -- Stationary point found.
 Normal termination of Gaussian 16 at Wed Aug 14 19:17:15 2024.

 ----------------------------------------------------------------------
 # M062X/def2tzvp int=(grid=ultrafine) pop=nbo7 polar prop=efg volume g
 uess=read geom=check
 ----------------------------------------------------------------------

 ---------
 pyrd6.xyz
 ---------
 Structure from the checkpoint file:  "pyrd6_conf-1.chk"
 Charge =  0 Multiplicity = 1

 SCF Done:  E(RM062X) =  -3262.37553188     A.U. after   12 cycles

  Exact polarizability:     237.044       2.481     180.298      -0.077       0.367     114.678
 Approx polarizability:     248.068       8.829     229.506      -0.074       0.265     151.706

 Summary of Natural Population Analysis:

                                     Natural Population
             Natural    ---------------------------------------------
  Atom No    Charge        Core      Valence    Rydberg      Total
 --------------------------------------------------------------------
   Br  1    0.03684     27.99996     6.95282    0.01038    34.96316
    C  2    0.18160      1.99999     3.78552    0.03288     5.81840
    C  3   -0.31191      1.99999     4.29340    0.01852     6.31191
    C  4    0.05903      1.99999     3.92648    0.01450     5.94097
    C  5   -0.63411      1.99999     4.62449    0.00963     6.63411
    C  6   -0.30027      1.99999     4.28436    0.01592     6.30027
    C  7    0.38245      1.99999     3.59629    0.02127     5.61755
    N  8   -0.61433      2.00000     5.59325    0.02108     7.61433
    C  9    0.90720      1.99999     3.05709    0.03572     5.09280
    O 10   -0.53383      2.00000     6.51275    0.02108     8.53383
    C 11    0.27700      1.99999     3.70955    0.01346     5.72300
    C 12   -0.64313      1.99999     4.63241    0.01073     6.64313
    C 13   -0.64313      1.99999     4.63241    0.01073     6.64313
    C 14   -0.61429      1.99999     4.60350    0.01080     6.61429
    O 15   -0.65039      2.00000     6.62568    0.02471     8.65039
    N 16   -0.48411      1.99999     5.44783    0.03629     7.48411
    H 17    0.23365      0.00000     0.76501    0.00134     0.76635
    H 18    0.22573      0.00000     0.77317    0.00110     0.77427
    H 19    0.22135      0.00000     0.77758    0.00108     0.77865
    H 20    0.23159      0.00000     0.76721    0.00120     0.76841
    H 21    0.26168      0.00000     0.73690    0.00142     0.73832
    H 22    0.42910      0.00000     0.56908    0.00182     0.57090
    H 23    0.21481      0.00000     0.78428    0.00091     0.78519
    H 24    0.23941      0.00000     0.75946    0.00112     0.76059
    H 25    0.21390      0.00000     0.78498    0.00112     0.78610
    H 26    0.21482      0.00000     0.78427    0.00091     0.78518
    H 27    0.23939      0.00000     0.75949    0.00112     0.76061
    H 28    0.21393      0.00000     0.78496    0.00112     0.78607
    H 29    0.21643      0.00000     0.78247    0.00110     0.78357
    H 30    0.21644      0.00000     0.78246    0.00110     0.78356
    H 31    0.21314      0.00000     0.78595    0.00091     0.78686
 ====================================================================
 * Total *  0.00000     57.99985    87.67511    0.32504   146.00000

 Normal termination of Gaussian 16 at Wed Aug 14 19:29:37 2024.
 Gaussian 16:  ES64L-G16RevC.01  3-Jul-2019

 --------------------------------------------------------------------
 # M062X/def2tzvp int=(grid=ultrafine) nmr=giao guess=read geom=check
 --------------------------------------------------------------------

 ---------
 pyrd6.xyz
 ---------
 Structure from the checkpoint file:  "pyrd6_conf-1.chk"
 Charge =  0 Multiplicity = 1

                         Standard orientation:
 ---------------------------------------------------------------------
 Center     Atomic      Atomic             Coordinates (Angstroms)
 Number     Number       Type             X           Y           Z
 ---------------------------------------------------------------------
      1         35           0       -4.060283   -1.385433    0.001585
      2          6           0       -2.609198   -0.124718   -0.000990
      3          6           0       -2.912106    1.232414   -0.009629
      4          6           0       -1.837222    2.128804   -0.011430
      5          6           0       -2.076654    3.615776    0.012183
      6          6           0       -0.536558    1.620685   -0.010472
      7          6           0       -0.368158    0.231630   -0.002079
      8          7           0        0.872052   -0.406466   -0.001111
      9          6           0        2.125197    0.164803   -0.001741
     10          8           0        3.035378   -0.830196    0.002041
     11          6           0        4.477776   -0.527813    0.001537
     12          6           0        4.846777    0.241666    1.270450
     13          6           0        4.847662    0.233597   -1.271979
     14          6           0        5.105141   -1.920513    0.006163
     15          8           0        2.354513    1.361353   -0.005309
     16          7           0       -1.395133   -0.634890    0.002476
     17          1           0       -3.939565    1.573088   -0.016107
     18          1           0       -1.278640    4.153071   -0.506343
     19          1           0       -3.031604    3.873459   -0.452875
     20          1           0       -2.102473    3.981509    1.045304
     21          1           0        0.329190    2.266853   -0.017413
     22          1           0        0.822289   -1.416120    0.002400
     23          1           0        5.933820    0.354771    1.323224
     24          1           0        4.388663    1.230296    1.276683
     25          1           0        4.518030   -0.310103    2.156066
     26          1           0        5.934757    0.346165   -1.324804
     27          1           0        4.389740    1.222250   -1.284737
     28          1           0        4.519347   -0.323684   -2.154297
     29          1           0        4.798340   -2.478041    0.895183
     30          1           0        4.799097   -2.483596   -0.879609
     31          1           0        6.195403   -1.837508    0.006371
 ---------------------------------------------------------------------

 SCF Done:  E(RM062X) =  -3262.37553188     A.U. after    1 cycles

      1  Br   Isotropic =  1915.4921   Anisotropy =  1524.9347

      2  C    Isotropic =     4.7311   Anisotropy =   114.7863

      3  C    Isotropic =    42.1424   Anisotropy =   140.9145

      4  C    Isotropic =     7.0066   Anisotropy =   250.6815

      5  C    Isotropic =   163.3181   Anisotropy =    40.2512

      6  C    Isotropic =    57.3334   Anisotropy =   169.7628

      7  C    Isotropic =    12.0505   Anisotropy =   161.4734

      8  N    Isotropic =   108.7342   Anisotropy =   107.5300

      9  C    Isotropic =    17.6769   Anisotropy =    77.1845

     10  O    Isotropic =   103.3910   Anisotropy =   104.6959

     11  C    Isotropic =    99.2731   Anisotropy =    80.0101

     12  C    Isotropic =   158.9973   Anisotropy =    41.5440

     13  C    Isotropic =   158.9957   Anisotropy =    41.5627

     14  C    Isotropic =   152.3232   Anisotropy =    50.4654

     15  O    Isotropic =   -36.3729   Anisotropy =   500.7392

     16  N    Isotropic =   -83.5707   Anisotropy =   443.9820

     17  H    Isotropic =    24.3604   Anisotropy =    11.5956

     18  H    Isotropic =    29.5372   Anisotropy =     7.3701

     19  H    Isotropic =    29.7090   Anisotropy =     7.7669

     20  H    Isotropic =    29.4318   Anisotropy =     8.1509

     21  H    Isotropic =    23.1116   Anisotropy =    13.5034

     22  H    Isotropic =    24.7040   Anisotropy =     7.4793

     23  H    Isotropic =    30.9296   Anisotropy =     8.9399

     24  H    Isotropic =    29.1021   Anisotropy =     6.4334

     25  H    Isotropic =    30.7384   Anisotropy =     7.4767

     26  H    Isotropic =    30.9298   Anisotropy =     8.9393

     27  H    Isotropic =    29.1013   Anisotropy =     6.4396

     28  H    Isotropic =    30.7384   Anisotropy =     7.4724

     29  H    Isotropic =    30.4658   Anisotropy =     7.8204

     30  H    Isotropic =    30.4659   Anisotropy =     7.8177

     31  H    Isotropic =    30.9080   Anisotropy =     8.6351

 The electronic state is 1-A.
 Alpha  occ. eigenvalues -- -485.36917 -63.35410 -57.17352 -57.17120 -57.17107
 Alpha  occ. eigenvalues --  -19.67334 -19.61516 -14.79646 -14.76311 -10.71047
 Alpha  occ. eigenvalues --  -10.63865 -10.63757 -10.61896 -10.58080 -10.55592
 Alpha  occ. eigenvalues --  -10.55016 -10.54810 -10.53617 -10.53095 -10.53094
 Alpha  occ. eigenvalues --   -9.02059  -6.84462  -6.83603  -6.83558  -2.87838
 Alpha  occ. eigenvalues --   -2.87534  -2.87486  -2.86687  -2.86687  -1.24145
 Alpha  occ. eigenvalues --   -1.14815  -1.10444  -1.03933  -0.93457  -0.92374
 Alpha  occ. eigenvalues --   -0.89626  -0.83097  -0.81532  -0.79484  -0.79283
 Alpha  occ. eigenvalues --   -0.76884  -0.70378  -0.68938  -0.65113  -0.60718
 Alpha  occ. eigenvalues --   -0.60196  -0.57709  -0.57297  -0.57216  -0.54667
 Alpha  occ. eigenvalues --   -0.52822  -0.52767  -0.51260  -0.49286  -0.49245
 Alpha  occ. eigenvalues --   -0.48839  -0.47568  -0.46320  -0.46133  -0.45930
 Alpha  occ. eigenvalues --   -0.43934  -0.43928  -0.43354  -0.42847  -0.40916
 Alpha  occ. eigenvalues --   -0.40648  -0.37720  -0.36182  -0.35986  -0.35392
 Alpha  occ. eigenvalues --   -0.34569  -0.33270  -0.28870
 Alpha virt. eigenvalues --   -0.00468   0.00351   0.04077   0.05532   0.07257
 Alpha virt. eigenvalues --    0.08458   0.09333   0.10070   0.11178   0.11421
 Alpha virt. eigenvalues --    0.11533   0.12393   0.12488   0.13131   0.14289

 Mulliken charges:
               1
     1  Br  -0.104451
     2  C    0.125464
     3  C   -0.240322
     4  C    0.129686
     5  C   -0.472600
     6  C   -0.271645
     7  C    0.328133
     8  N   -0.354279
     9  C    0.548638
    10  O   -0.308449
    11  C    0.098330
    12  C   -0.451796
    13  C   -0.451905
    14  C   -0.406323
    15  O   -0.433731
    16  N   -0.280463
    17  H    0.168093
    18  H    0.157566
    19  H    0.151415
    20  H    0.168883
    21  H    0.210556
    22  H    0.262201
    23  H    0.149450
    24  H    0.184002
    25  H    0.153470
    26  H    0.149464
    27  H    0.183938
    28  H    0.153534
    29  H    0.154623
    30  H    0.154632
    31  H    0.143886
 Sum of Mulliken charges =  -0.00000

 Dipole moment (field-independent basis, Debye):
    X=              2.3145    Y=              1.2790    Z=              0.0481  Tot=              2.6449
 Quadrupole moment (field-independent basis, Debye-Ang):
   XX=            -97.5987   YY=           -103.9158   ZZ=           -109.4448
   XY=            -12.7891   XZ=             -0.0703   YZ=              0.1573

 Normal termination of Gaussian 16 at Wed Aug 14 19:34:41 2024.
