 Gaussian 16, Revision C.01,

 ----------------------------------------------------------------------
 # B3LYP/6-31G(d,p) symmetry=loose empiricaldispersion=GD3BJ int=(grid=
 ultrafine) opt freq=noraman
 ----------------------------------------------------------------------

 ---------
 pyrd9.xyz
 ---------
 Symbolic Z-matrix:
 Charge =  0 Multiplicity = 1

 SCF Done:  E(RB3LYP) =  -894.841644447     A.U. after   14 cycles
 SCF Done:  E(RB3LYP) =  -894.844775637     A.U. after   12 cycles
 SCF Done:  E(RB3LYP) =  -894.845101936     A.U. after   11 cycles
 SCF Done:  E(RB3LYP) =  -894.845124519     A.U. after   10 cycles
 SCF Done:  E(RB3LYP) =  -894.845125383     A.U. after    8 cycles
 Optimization completed.
    -- Stationary point found.
 Normal termination of Gaussian 16 at Wed Aug 14 19:53:28 2024.

 ----------------------------------------------------------------------
 #N Geom=AllCheck Guess=TCheck SCRF=Check GenChk RB3LYP/6-31G(d,p) Freq
 ----------------------------------------------------------------------

 Structure from the checkpoint file:  "pyrd9_conf-1.chk"
 ---------
 pyrd9.xyz
 ---------
 Charge =  0 Multiplicity = 1

 SCF Done:  E(RB3LYP) =  -894.845125383     A.U. after    1 cycles

                      1                      2                      3
                      A                      A                      A
 Frequencies --     64.7999               111.2959               175.8977
 Red. masses --      1.0325                 7.2456                 3.4853
 Frc consts  --      0.0026                 0.0529                 0.0635
 IR Inten    --      0.6816                 0.6440                 1.2784

                      4                      5                      6
                      A                      A                      A
 Frequencies --    234.5113               250.1050               262.2539
 Red. masses --      6.0124                 7.0938                 3.6001
 Frc consts  --      0.1948                 0.2614                 0.1459
 IR Inten    --      0.3338                 2.4853                 1.5637

                      7                      8                      9
                      A                      A                      A
 Frequencies --    322.3014               379.0695               453.4384
 Red. masses --      5.6117                14.7506                 1.3671
 Frc consts  --      0.3435                 1.2488                 0.1656
 IR Inten    --      5.9256                 5.9829                71.6526

                     10                     11                     12
                      A                      A                      A
 Frequencies --    499.6262               545.3814               562.1125
 Red. masses --      4.9570                 5.4936                 3.4563
 Frc consts  --      0.7291                 0.9627                 0.6434
 IR Inten    --      0.2244                 6.6105                 0.0023

                     13                     14                     15
                      A                      A                      A
 Frequencies --    629.7308               661.0287               671.5618
 Red. masses --      5.2294                 6.8889                 3.5954
 Frc consts  --      1.2218                 1.7735                 0.9554
 IR Inten    --      0.3020                 7.9838                22.5853

                     16                     17                     18
                      A                      A                      A
 Frequencies --    776.0129               782.8956               840.6091
 Red. masses --      3.5481                 6.4434                 1.4580
 Frc consts  --      1.2589                 2.3269                 0.6070
 IR Inten    --      1.4416                22.1577                16.4778

                     19                     20                     21
                      A                      A                      A
 Frequencies --    872.6950               917.9398               956.7435
 Red. masses --      1.3747                 7.8819                 4.1863
 Frc consts  --      0.6168                 3.9130                 2.2577
 IR Inten    --     17.8738                66.2989                56.7676

                     22                     23                     24
                      A                      A                      A
 Frequencies --    980.6307              1057.7861              1092.9339
 Red. masses --      1.8228                 1.5657                 3.9035
 Frc consts  --      1.0328                 1.0322                 2.7472
 IR Inten    --     18.7260                 2.3183                17.7306

                     25                     26                     27
                      A                      A                      A
 Frequencies --   1124.7201              1131.6120              1223.2255
 Red. masses --      4.7629                 1.9202                 1.7503
 Frc consts  --      3.5499                 1.4487                 1.5430
 IR Inten    --     26.6821                47.2355                13.2733

                     28                     29                     30
                      A                      A                      A
 Frequencies --   1293.1108              1338.0803              1376.2669
 Red. masses --      1.7866                 4.0285                 8.1325
 Frc consts  --      1.7602                 4.2497                 9.0757
 IR Inten    --     78.0113                18.4372                10.1093

                     31                     32                     33
                      A                      A                      A
 Frequencies --   1387.6166              1423.2501              1444.4918
 Red. masses --      2.1223                 1.5723                 3.4478
 Frc consts  --      2.4076                 1.8765                 4.2387
 IR Inten    --      0.3231                 3.8105                 3.4525

                     34                     35                     36
                      A                      A                      A
 Frequencies --   1482.8494              1495.9980              1500.7605
 Red. masses --      1.8360                 1.0442                 2.2764
 Frc consts  --      2.3785                 1.3768                 3.0208
 IR Inten    --     48.7101                 7.8756                35.6024

                     37                     38                     39
                      A                      A                      A
 Frequencies --   1525.7433              1626.7672              1654.6420
 Red. masses --      3.2526                 6.9790                 7.0490
 Frc consts  --      4.4612                10.8817                11.3706
 IR Inten    --      2.4900                72.6787               149.8334

                     40                     41                     42
                      A                      A                      A
 Frequencies --   3046.7862              3102.2482              3166.4714
 Red. masses --      1.0388                 1.1003                 1.1004
 Frc consts  --      5.6816                 6.2392                 6.5005
 IR Inten    --     12.1486                12.2332                 4.9252

                     43                     44                     45
                      A                      A                      A
 Frequencies --   3238.8985              3261.1932              3690.6348
 Red. masses --      1.0936                 1.0964                 1.0814
 Frc consts  --      6.7592                 6.8702                 8.6782
 IR Inten    --      0.4123                 2.7922                94.0984

 - Thermochemistry -
 -------------------
 Temperature   298.150 Kelvin.  Pressure   1.00000 Atm.
 Atom     1 has atomic number  6 and mass  12.00000

 Molecular mass:   167.02502 amu.
 Principal axes and moments of inertia in atomic units:
                                 1                 2                 3
     Eigenvalues --         1006.827140       2536.251374       3531.877120
           X                   0.999894          0.014530          0.000000
           Y                  -0.014530          0.999894         -0.000000
           Z                  -0.000000          0.000000          1.000000
 This molecule is an asymmetric top.
 Rotational symmetry number  1.
 Warning -- assumption of classical behavior for rotation
           may cause significant error
 Rotational temperatures (Kelvin)      0.08603     0.03415     0.02452
 Rotational constants (GHZ):           1.79250     0.71158     0.51099
 Zero-point vibrational energy     326800.2 (Joules/Mol)
                                   78.10712 (Kcal/Mol)
 Warning -- explicit consideration of  12 degrees of freedom as
           vibrations may cause significant error
 Vibrational temperatures:     93.23   160.13   253.08   337.41   359.85
          (Kelvin)            377.32   463.72   545.40   652.40   718.85
                              784.68   808.75   906.04   951.07   966.23
                             1116.51  1126.41  1209.45  1255.61  1320.71
                             1376.54  1410.91  1521.92  1572.49  1618.22
                             1628.14  1759.95  1860.50  1925.20  1980.14
                             1996.47  2047.74  2078.30  2133.49  2152.41
                             2159.26  2195.20  2340.56  2380.66  4383.65
                             4463.44  4555.85  4660.05  4692.13  5310.00

 Zero-point correction=                           0.124472 (Hartree/Particle)
 Thermal correction to Energy=                    0.133487
 Thermal correction to Enthalpy=                  0.134431
 Thermal correction to Gibbs Free Energy=         0.089522
 Sum of electronic and zero-point Energies=           -894.720654
 Sum of electronic and thermal Energies=              -894.711638
 Sum of electronic and thermal Enthalpies=            -894.710694
 Sum of electronic and thermal Free Energies=         -894.755603

                     E (Thermal)             CV                S
                      KCal/Mol        Cal/Mol-Kelvin    Cal/Mol-Kelvin
 Total                   83.765             34.000             94.520
 Electronic               0.000              0.000              0.000
 Translational            0.889              2.981             41.247
 Rotational               0.889              2.981             30.579
 Vibrational             81.987             28.039             22.694
 Vibration     1          0.597              1.971              4.305
 Vibration     2          0.607              1.940              3.246
 Vibration     3          0.628              1.872              2.372
 Vibration     4          0.654              1.788              1.844
 Vibration     5          0.663              1.763              1.730
 Vibration     6          0.670              1.742              1.647
 Vibration     7          0.707              1.631              1.298
 Vibration     8          0.749              1.515              1.043
 Vibration     9          0.812              1.353              0.785
 Vibration    10          0.855              1.251              0.659
 Vibration    11          0.901              1.150              0.554
 Vibration    12          0.918              1.113              0.520

 Optimization completed.
    -- Stationary point found.
 Normal termination of Gaussian 16 at Wed Aug 14 19:54:30 2024.

 ----------------------------------------------------------------------
 # M062X/def2tzvp int=(grid=ultrafine) pop=nbo7 polar prop=efg volume g
 uess=read geom=check
 ----------------------------------------------------------------------

 ---------
 pyrd9.xyz
 ---------
 Structure from the checkpoint file:  "pyrd9_conf-1.chk"
 Charge =  0 Multiplicity = 1

 SCF Done:  E(RM062X) =  -894.788091350     A.U. after   12 cycles

  Exact polarizability:     153.047       0.469     121.873       0.000       0.000      62.237
 Approx polarizability:     190.645      -4.090     165.025       0.000       0.000      88.040

 Summary of Natural Population Analysis:

                                     Natural Population
             Natural    ---------------------------------------------
  Atom No    Charge        Core      Valence    Rydberg      Total
 --------------------------------------------------------------------
    C  1   -0.64848      1.99999     4.63895    0.00954     6.64848
    C  2    0.28641      1.99999     3.69471    0.01889     5.71359
    N  3   -0.46090      1.99999     5.42566    0.03525     7.46090
    C  4    0.20270      1.99999     3.76708    0.03023     5.79730
   Cl  5   -0.00786      9.99998     6.99151    0.01637    17.00786
    C  6   -0.31004      1.99999     4.29276    0.01729     6.31004
    C  7    0.16897      1.99999     3.81317    0.01787     5.83103
    C  8   -0.20103      1.99999     4.18327    0.01776     6.20103
    C  9   -0.02504      1.99999     4.00338    0.02166     6.02504
    N 10   -0.21621      1.99999     5.18405    0.03217     7.21621
    N 11   -0.35667      2.00000     5.33390    0.02278     7.35667
    H 12    0.22629      0.00000     0.77263    0.00109     0.77371
    H 13    0.24141      0.00000     0.75738    0.00121     0.75859
    H 14    0.22628      0.00000     0.77263    0.00109     0.77372
    H 15    0.24134      0.00000     0.75727    0.00140     0.75866
    H 16    0.21986      0.00000     0.77900    0.00114     0.78014
    H 17    0.41297      0.00000     0.58541    0.00162     0.58703
 ====================================================================
 * Total *  0.00000     29.99990    55.75275    0.24735    86.00000

 Normal termination of Gaussian 16 at Wed Aug 14 19:58:30 2024.
 Gaussian 16:  ES64L-G16RevC.01  3-Jul-2019

 --------------------------------------------------------------------
 # M062X/def2tzvp int=(grid=ultrafine) nmr=giao guess=read geom=check
 --------------------------------------------------------------------

 ---------
 pyrd9.xyz
 ---------
 Structure from the checkpoint file:  "pyrd9_conf-1.chk"
 Charge =  0 Multiplicity = 1

                         Standard orientation:
 ---------------------------------------------------------------------
 Center     Atomic      Atomic             Coordinates (Angstroms)
 Number     Number       Type             X           Y           Z
 ---------------------------------------------------------------------
      1          6           0        0.652079    2.828158    0.000009
      2          6           0        0.250154    1.381026    0.000019
      3          7           0       -1.051834    1.095585   -0.000014
      4          6           0       -1.439540   -0.184768   -0.000061
      5         17           0       -3.183098   -0.447068    0.000019
      6          6           0       -0.616611   -1.298930   -0.000032
      7          6           0        0.751828   -0.996953   -0.000012
      8          6           0        1.205377    0.345003    0.000005
      9          6           0        2.631659    0.240234   -0.000006
     10          7           0        3.022306   -1.020159   -0.000016
     11          7           0        1.875523   -1.764611    0.000039
     12          1           0        1.257437    3.064622    0.882141
     13          1           0       -0.238823    3.456252   -0.000062
     14          1           0        1.257561    3.064587   -0.882046
     15          1           0       -1.012431   -2.305891   -0.000017
     16          1           0        3.368385    1.031128   -0.000011
     17          1           0        1.948892   -2.768871    0.000077
 ---------------------------------------------------------------------

 SCF Done:  E(RM062X) =  -894.788091350     A.U. after    1 cycles

      1  C    Isotropic =   161.1830   Anisotropy =    44.5907

      2  C    Isotropic =     7.0581   Anisotropy =   202.1901

      3  N    Isotropic =  -106.6853   Anisotropy =   491.0521

      4  C    Isotropic =     8.5729   Anisotropy =   114.9549

      5  Cl   Isotropic =   598.1128   Anisotropy =   632.3449

      6  C    Isotropic =    68.6122   Anisotropy =   135.0123

      7  C    Isotropic =    20.0491   Anisotropy =   189.6406

      8  C    Isotropic =    46.9450   Anisotropy =   167.5127

      9  C    Isotropic =    30.8571   Anisotropy =   156.5201

     10  N    Isotropic =  -138.4145   Anisotropy =   442.2498

     11  N    Isotropic =    48.0937   Anisotropy =   109.0299

     12  H    Isotropic =    28.9500   Anisotropy =     7.2562

     13  H    Isotropic =    28.9878   Anisotropy =     7.7710

     14  H    Isotropic =    28.9500   Anisotropy =     7.2562

     15  H    Isotropic =    24.1441   Anisotropy =     9.2674

     16  H    Isotropic =    23.0123   Anisotropy =     6.3160

     17  H    Isotropic =    22.0770   Anisotropy =     5.1953

 The electronic state is 1-A.
 Alpha  occ. eigenvalues -- -102.64242 -14.83885 -14.80234 -14.76043 -10.64459
 Alpha  occ. eigenvalues --  -10.61315 -10.61174 -10.58660 -10.57190 -10.56311
 Alpha  occ. eigenvalues --  -10.54533  -9.80506  -7.52699  -7.52194  -7.52169
 Alpha  occ. eigenvalues --   -1.17809  -1.07904  -0.96138  -0.95101  -0.91706
 Alpha  occ. eigenvalues --   -0.87255  -0.81799  -0.73909  -0.71670  -0.70410
 Alpha  occ. eigenvalues --   -0.63468  -0.58575  -0.57650  -0.55296  -0.53634
 Alpha  occ. eigenvalues --   -0.51736  -0.50901  -0.50164  -0.47278  -0.46161
 Alpha  occ. eigenvalues --   -0.43766  -0.39493  -0.39333  -0.37849  -0.37400
 Alpha  occ. eigenvalues --   -0.34686  -0.32936  -0.29280
 Alpha virt. eigenvalues --   -0.02545   0.01809   0.05190   0.06553   0.06870
 Alpha virt. eigenvalues --    0.07238   0.10136   0.11811   0.12425   0.13967
 Alpha virt. eigenvalues --    0.14794   0.15762   0.16107   0.18131   0.18187

 Mulliken charges:
               1
     1  C   -0.509698
     2  C    0.180747
     3  N   -0.226424
     4  C    0.165839
     5  Cl  -0.085966
     6  C   -0.315281
     7  C    0.142991
     8  C    0.028378
     9  C   -0.108565
    10  N   -0.177140
    11  N   -0.165014
    12  H    0.160920
    13  H    0.167492
    14  H    0.160917
    15  H    0.165696
    16  H    0.155788
    17  H    0.259320
 Sum of Mulliken charges =  -0.00000

 Dipole moment (field-independent basis, Debye):
    X=              2.0114    Y=             -1.0734    Z=              0.0001  Tot=              2.2799
 Quadrupole moment (field-independent basis, Debye-Ang):
   XX=            -80.2274   YY=            -57.8053   ZZ=            -72.2100
   XY=              4.7838   XZ=              0.0002   YZ=             -0.0003

 Normal termination of Gaussian 16 at Wed Aug 14 20:00:00 2024.
