 Gaussian 16, Revision C.01,

 ----------------------------------------------------------------------
 # B3LYP/6-31G(d,p) symmetry=loose empiricaldispersion=GD3BJ int=(grid=
 ultrafine) opt freq=noraman
 ----------------------------------------------------------------------

 ---------
 pyrd6.xyz
 ---------
 Symbolic Z-matrix:
 Charge =  0 Multiplicity = 1

 SCF Done:  E(RB3LYP) =  -3259.97745381     A.U. after   15 cycles
 SCF Done:  E(RB3LYP) =  -3259.98463576     A.U. after   12 cycles
 SCF Done:  E(RB3LYP) =  -3259.98569280     A.U. after   12 cycles
 SCF Done:  E(RB3LYP) =  -3259.98593355     A.U. after   12 cycles
 SCF Done:  E(RB3LYP) =  -3259.98597620     A.U. after   12 cycles
 SCF Done:  E(RB3LYP) =  -3259.98614985     A.U. after   11 cycles
 SCF Done:  E(RB3LYP) =  -3259.98622972     A.U. after   11 cycles
 SCF Done:  E(RB3LYP) =  -3259.98635299     A.U. after   12 cycles
 SCF Done:  E(RB3LYP) =  -3259.98630722     A.U. after   12 cycles
 SCF Done:  E(RB3LYP) =  -3259.98648137     A.U. after   11 cycles
 SCF Done:  E(RB3LYP) =  -3259.98725330     A.U. after   12 cycles
 SCF Done:  E(RB3LYP) =  -3259.98725312     A.U. after   11 cycles
 SCF Done:  E(RB3LYP) =  -3259.98725849     A.U. after    9 cycles
 SCF Done:  E(RB3LYP) =  -3259.98726231     A.U. after   10 cycles
 SCF Done:  E(RB3LYP) =  -3259.98726250     A.U. after    7 cycles
 SCF Done:  E(RB3LYP) =  -3259.98726255     A.U. after    7 cycles
 SCF Done:  E(RB3LYP) =  -3259.98726256     A.U. after    6 cycles
 Optimization completed.
    -- Stationary point found.
 Normal termination of Gaussian 16 at Wed Aug 14 19:18:22 2024.

 ----------------------------------------------------------------------
 #N Geom=AllCheck Guess=TCheck SCRF=Check GenChk RB3LYP/6-31G(d,p) Freq
 ----------------------------------------------------------------------

 Structure from the checkpoint file:  "pyrd6_conf-3.chk"
 ---------
 pyrd6.xyz
 ---------
 Charge =  0 Multiplicity = 1

 SCF Done:  E(RB3LYP) =  -3259.98726256     A.U. after    1 cycles

                      1                      2                      3
                      A                      A                      A
 Frequencies --     25.1293                31.1428                35.9586
 Red. masses --      4.4716                 3.8574                 1.0208
 Frc consts  --      0.0017                 0.0022                 0.0008
 IR Inten    --      1.1545                 0.7527                 0.2191

                      4                      5                      6
                      A                      A                      A
 Frequencies --     58.1469                81.4658               111.0218
 Red. masses --      4.6587                 6.6126                 5.7001
 Frc consts  --      0.0093                 0.0259                 0.0414
 IR Inten    --      1.2018                 0.8732                 1.1801

                      7                      8                      9
                      A                      A                      A
 Frequencies --    151.1535               176.9611               202.1090
 Red. masses --      4.8469                 3.8651                 3.6905
 Frc consts  --      0.0652                 0.0713                 0.0888
 IR Inten    --      0.4067                 1.2163                 3.2522

                     10                     11                     12
                      A                      A                      A
 Frequencies --    211.5525               222.0734               234.0292
 Red. masses --      4.1246                 1.4309                 2.2656
 Frc consts  --      0.1088                 0.0416                 0.0731
 IR Inten    --      0.9811                 0.6147                 1.9013

                     13                     14                     15
                      A                      A                      A
 Frequencies --    252.3805               269.8822               295.9598
 Red. masses --      5.0524                 1.0535                 1.1067
 Frc consts  --      0.1896                 0.0452                 0.0571
 IR Inten    --      3.7179                 0.0683                 0.2666

                     16                     17                     18
                      A                      A                      A
 Frequencies --    312.1994               321.8657               359.1038
 Red. masses --      6.6371                 2.9846                 2.5742
 Frc consts  --      0.3811                 0.1822                 0.1956
 IR Inten    --      7.6824                 2.3530                 3.2341

                     19                     20                     21
                      A                      A                      A
 Frequencies --    376.1091               412.8901               449.7847
 Red. masses --      3.3080                 3.5251                 3.4078
 Frc consts  --      0.2757                 0.3541                 0.4062
 IR Inten    --      2.6645                 2.3891                 1.2031

                     22                     23                     24
                      A                      A                      A
 Frequencies --    460.8248               476.6407               506.3899
 Red. masses --      2.7229                 3.0018                 1.2909
 Frc consts  --      0.3407                 0.4018                 0.1950
 IR Inten    --     16.1734                 6.1766                87.3321

                     25                     26                     27
                      A                      A                      A
 Frequencies --    525.9874               553.9460               624.4705
 Red. masses --      5.2223                 4.0722                 5.1241
 Frc consts  --      0.8513                 0.7362                 1.1773
 IR Inten    --      5.7041                 7.8364                 3.9548

                     28                     29                     30
                      A                      A                      A
 Frequencies --    666.4077               701.3611               743.7185
 Red. masses --      4.4000                 7.2196                 3.8815
 Frc consts  --      1.1513                 2.0924                 1.2649
 IR Inten    --      3.6653                50.1249                 1.1306

                     31                     32                     33
                      A                      A                      A
 Frequencies --    780.1127               795.8455               848.6423
 Red. masses --      7.3488                 4.2077                 1.4468
 Frc consts  --      2.6350                 1.5702                 0.6139
 IR Inten    --     25.4595                 6.1316                32.4066

                     34                     35                     36
                      A                      A                      A
 Frequencies --    863.8195               878.9538               889.3180
 Red. masses --      4.1963                 1.4882                 4.6104
 Frc consts  --      1.8449                 0.6774                 2.1483
 IR Inten    --     43.0630                 1.4396                13.8221

                     37                     38                     39
                      A                      A                      A
 Frequencies --    935.1452               938.1486               981.7520
 Red. masses --      1.6103                 1.6073                 1.2066
 Frc consts  --      0.8297                 0.8335                 0.6852
 IR Inten    --      0.2688                 0.2574                 0.0547

                     40                     41                     42
                      A                      A                      A
 Frequencies --    984.0868              1011.2003              1025.7269
 Red. masses --      4.5878                 6.2868                 1.5150
 Frc consts  --      2.6177                 3.7875                 0.9391
 IR Inten    --     11.5334                 2.6845                 1.2512

                     43                     44                     45
                      A                      A                      A
 Frequencies --   1061.6999              1063.6812              1064.9414
 Red. masses --      1.6491                 1.5323                 1.4589
 Frc consts  --      1.0952                 1.0215                 0.9748
 IR Inten    --      8.2759                12.9406                 3.6623

                     46                     47                     48
                      A                      A                      A
 Frequencies --   1086.1097              1173.6018              1203.3006
 Red. masses --      2.5731                 1.6018                 1.8620
 Frc consts  --      1.7883                 1.2999                 1.5885
 IR Inten    --     49.1899                13.9106               193.9725

                     49                     50                     51
                      A                      A                      A
 Frequencies --   1211.1216              1283.3547              1292.6675
 Red. masses --      1.8537                 2.6551                 2.8035
 Frc consts  --      1.6020                 2.5764                 2.7600
 IR Inten    --    196.1980                39.0101                38.3655

                     52                     53                     54
                      A                      A                      A
 Frequencies --   1309.9069              1341.8531              1348.6148
 Red. masses --      3.8192                 6.4001                 4.4684
 Frc consts  --      3.8610                 6.7896                 4.7883
 IR Inten    --      9.9242               287.2485               349.2453

                     55                     56                     57
                      A                      A                      A
 Frequencies --   1399.7285              1412.4811              1416.0108
 Red. masses --      2.0170                 1.2975                 1.3010
 Frc consts  --      2.3283                 1.5251                 1.5369
 IR Inten    --     41.3011                14.8943                27.5747

                     58                     59                     60
                      A                      A                      A
 Frequencies --   1425.1483              1441.3072              1485.0149
 Red. masses --      1.2489                 1.2359                 1.0479
 Frc consts  --      1.4945                 1.5127                 1.3616
 IR Inten    --      1.7753                26.9527                 0.6214

                     61                     62                     63
                      A                      A                      A
 Frequencies --   1487.9795              1499.3430              1503.4057
 Red. masses --      2.1013                 1.1833                 1.3338
 Frc consts  --      2.7411                 1.5672                 1.7762
 IR Inten    --     13.5936                47.5161                 6.2323

                     64                     65                     66
                      A                      A                      A
 Frequencies --   1506.2966              1509.9549              1512.0142
 Red. masses --      1.0732                 1.0646                 1.1853
 Frc consts  --      1.4347                 1.4301                 1.5966
 IR Inten    --     13.4263                 5.5052                23.7657

                     67                     68                     69
                      A                      A                      A
 Frequencies --   1513.0143              1519.7866              1544.9518
 Red. masses --      1.9636                 1.0666                 1.0572
 Frc consts  --      2.6485                 1.4515                 1.4867
 IR Inten    --    130.7455                 0.8088                 7.2264

                     70                     71                     72
                      A                      A                      A
 Frequencies --   1613.7169              1650.4040              1813.9154
 Red. masses --      6.4028                 6.4973                 9.2698
 Frc consts  --      9.8237                10.4270                17.9702
 IR Inten    --    183.2923               305.2922               488.3215

                     73                     74                     75
                      A                      A                      A
 Frequencies --   3048.6425              3052.4901              3055.1216
 Red. masses --      1.0390                 1.0361                 1.0357
 Frc consts  --      5.6894                 5.6879                 5.6958
 IR Inten    --     17.0040                 7.0935                24.3820

                     76                     77                     78
                      A                      A                      A
 Frequencies --   3061.9817              3112.5318              3121.7778
 Red. masses --      1.0364                 1.0973                 1.1024
 Frc consts  --      5.7251                 6.2635                 6.3301
 IR Inten    --     19.2300                13.3289                 7.9581

                     79                     80                     81
                      A                      A                      A
 Frequencies --   3130.4197              3135.1844              3139.3737
 Red. masses --      1.1022                 1.1022                 1.1035
 Frc consts  --      6.3639                 6.3830                 6.4079
 IR Inten    --     16.8862                33.8587                11.7945

                     82                     83                     84
                      A                      A                      A
 Frequencies --   3143.9899              3153.3993              3165.3605
 Red. masses --      1.1033                 1.1038                 1.1008
 Frc consts  --      6.4253                 6.4671                 6.4985
 IR Inten    --     16.9949                 6.7901                 7.6081

                     85                     86                     87
                      A                      A                      A
 Frequencies --   3196.9820              3230.2223              3648.3900
 Red. masses --      1.0917                 1.0928                 1.0767
 Frc consts  --      6.5743                 6.7184                 8.4442
 IR Inten    --      7.7829                 0.2649                52.3235

 - Thermochemistry -
 -------------------
 Temperature   298.150 Kelvin.  Pressure   1.00000 Atm.
 Atom     1 has atomic number 35 and mass  78.91834

 Molecular mass:   286.03169 amu.
 Principal axes and moments of inertia in atomic units:
                                 1                 2                 3
     Eigenvalues --         3515.006061       6071.902924       8922.360435
           X                   0.992834          0.119492          0.001591
           Y                  -0.119481          0.992818         -0.006037
           Z                  -0.002301          0.005804          0.999981
 This molecule is an asymmetric top.
 Rotational symmetry number  1.
 Warning -- assumption of classical behavior for rotation
           may cause significant error
 Rotational temperatures (Kelvin)      0.02464     0.01426     0.00971
 Rotational constants (GHZ):           0.51344     0.29723     0.20227
 Zero-point vibrational energy     657196.1 (Joules/Mol)
                                  157.07364 (Kcal/Mol)
 Warning -- explicit consideration of  26 degrees of freedom as
           vibrations may cause significant error
 Vibrational temperatures:     36.16    44.81    51.74    83.66   117.21
          (Kelvin)            159.74   217.48   254.61   290.79   304.38
                              319.51   336.72   363.12   388.30   425.82
                              449.19   463.09   516.67   541.14   594.06
                              647.14   663.02   685.78   728.58   756.78
                              797.00   898.47   958.81  1009.10  1070.04
                             1122.41  1145.04  1221.01  1242.84  1264.62
                             1279.53  1345.47  1349.79  1412.52  1415.88
                             1454.89  1475.79  1527.55  1530.40  1532.21
                             1562.67  1688.55  1731.28  1742.53  1846.46
                             1859.86  1884.66  1930.63  1940.36  2013.90
                             2032.25  2037.32  2050.47  2073.72  2136.61
                             2140.87  2157.22  2163.07  2167.22  2172.49
                             2175.45  2176.89  2186.63  2222.84  2321.78
                             2374.56  2609.82  4386.32  4391.85  4395.64
                             4405.51  4478.24  4491.54  4503.98  4510.83
                             4516.86  4523.50  4537.04  4554.25  4599.74
                             4647.57  5249.22

 Zero-point correction=                           0.250313 (Hartree/Particle)
 Thermal correction to Energy=                    0.267407
 Thermal correction to Enthalpy=                  0.268351
 Thermal correction to Gibbs Free Energy=         0.203377
 Sum of electronic and zero-point Energies=          -3259.736950
 Sum of electronic and thermal Energies=             -3259.719855
 Sum of electronic and thermal Enthalpies=           -3259.718911
 Sum of electronic and thermal Free Energies=        -3259.783885

                     E (Thermal)             CV                S
                      KCal/Mol        Cal/Mol-Kelvin    Cal/Mol-Kelvin
 Total                  167.801             62.624            136.749
 Electronic               0.000              0.000              0.000
 Translational            0.889              2.981             42.851
 Rotational               0.889              2.981             33.609
 Vibrational            166.023             56.662             60.289
 Vibration     1          0.593              1.985              6.181
 Vibration     2          0.594              1.983              5.755
 Vibration     3          0.594              1.982              5.470
 Vibration     4          0.596              1.974              4.519
 Vibration     5          0.600              1.962              3.855
 Vibration     6          0.607              1.940              3.251
 Vibration     7          0.619              1.901              2.658
 Vibration     8          0.628              1.871              2.360
 Vibration     9          0.639              1.837              2.114
 Vibration    10          0.643              1.823              2.030
 Vibration    11          0.648              1.807              1.942
 Vibration    12          0.654              1.789              1.848
 Vibration    13          0.664              1.759              1.714
 Vibration    14          0.674              1.729              1.597
 Vibration    15          0.690              1.681              1.440
 Vibration    16          0.701              1.650              1.351
 Vibration    17          0.707              1.632              1.301
 Vibration    18          0.734              1.557              1.126
 Vibration    19          0.747              1.521              1.055
 Vibration    20          0.777              1.442              0.916
 Vibration    21          0.809              1.361              0.796
 Vibration    22          0.819              1.337              0.764
 Vibration    23          0.833              1.302              0.719
 Vibration    24          0.862              1.236              0.642
 Vibration    25          0.881              1.192              0.596
 Vibration    26          0.909              1.131              0.536

                           ! Non-Optimized Parameters !
 Normal termination of Gaussian 16 at Wed Aug 14 19:21:57 2024.

 ----------------------------------------------------------------------
 # M062X/def2tzvp int=(grid=ultrafine) pop=nbo7 polar prop=efg volume g
 uess=read geom=check
 ----------------------------------------------------------------------

 ---------
 pyrd6.xyz
 ---------
 Structure from the checkpoint file:  "pyrd6_conf-3.chk"
 Charge =  0 Multiplicity = 1

 SCF Done:  E(RM062X) =  -3262.36290384     A.U. after   12 cycles

  Exact polarizability:     211.330       6.359     190.873       8.232      -0.906     117.623
 Approx polarizability:     233.671      -3.861     240.560      13.730      -1.188     159.809

 Summary of Natural Population Analysis:

                                     Natural Population
             Natural    ---------------------------------------------
  Atom No    Charge        Core      Valence    Rydberg      Total
 --------------------------------------------------------------------
   Br  1    0.03320     27.99996     6.95638    0.01046    34.96680
    C  2    0.18632      1.99999     3.78079    0.03290     5.81368
    C  3   -0.30813      1.99999     4.28995    0.01819     6.30813
    C  4    0.05522      1.99999     3.93025    0.01454     5.94478
    C  5   -0.63383      1.99999     4.62425    0.00958     6.63383
    C  6   -0.29084      1.99999     4.27544    0.01540     6.29084
    C  7    0.39126      1.99999     3.58799    0.02076     5.60874
    N  8   -0.63686      2.00000     5.61595    0.02091     7.63686
    C  9    0.91706      1.99999     3.04548    0.03747     5.08294
    O 10   -0.52441      2.00000     6.50100    0.02342     8.52441
    C 11    0.28399      1.99999     3.70216    0.01386     5.71601
    C 12   -0.61911      1.99999     4.60818    0.01094     6.61911
    C 13   -0.65164      1.99999     4.64099    0.01066     6.65164
    C 14   -0.63964      1.99999     4.62883    0.01081     6.63964
    O 15   -0.62672      2.00000     6.60183    0.02490     8.62672
    N 16   -0.47180      1.99999     5.43366    0.03815     7.47180
    H 17    0.23508      0.00000     0.76363    0.00129     0.76492
    H 18    0.22557      0.00000     0.77334    0.00110     0.77443
    H 19    0.23217      0.00000     0.76665    0.00118     0.76783
    H 20    0.22171      0.00000     0.77719    0.00110     0.77829
    H 21    0.22086      0.00000     0.77777    0.00137     0.77914
    H 22    0.41379      0.00000     0.58470    0.00151     0.58621
    H 23    0.22700      0.00000     0.77161    0.00139     0.77300
    H 24    0.21398      0.00000     0.78487    0.00114     0.78602
    H 25    0.20968      0.00000     0.78939    0.00093     0.79032
    H 26    0.23057      0.00000     0.76810    0.00133     0.76943
    H 27    0.22815      0.00000     0.77061    0.00124     0.77185
    H 28    0.21583      0.00000     0.78326    0.00090     0.78417
    H 29    0.21029      0.00000     0.78875    0.00096     0.78971
    H 30    0.21286      0.00000     0.78599    0.00114     0.78714
    H 31    0.23837      0.00000     0.76049    0.00115     0.76163
 ====================================================================
 * Total *  0.00000     57.99985    87.66947    0.33068   146.00000

 Normal termination of Gaussian 16 at Wed Aug 14 19:35:06 2024.
 Gaussian 16:  ES64L-G16RevC.01  3-Jul-2019

 --------------------------------------------------------------------
 # M062X/def2tzvp int=(grid=ultrafine) nmr=giao guess=read geom=check
 --------------------------------------------------------------------

 ---------
 pyrd6.xyz
 ---------
 Structure from the checkpoint file:  "pyrd6_conf-3.chk"
 Charge =  0 Multiplicity = 1

                         Standard orientation:
 ---------------------------------------------------------------------
 Center     Atomic      Atomic             Coordinates (Angstroms)
 Number     Number       Type             X           Y           Z
 ---------------------------------------------------------------------
      1         35           0        1.520956   -2.337761   -0.222362
      2          6           0        1.649181   -0.422063   -0.099038
      3          6           0        2.882861    0.161708    0.163990
      4          6           0        2.917762    1.559624    0.260282
      5          6           0        4.217242    2.278540    0.511374
      6          6           0        1.720774    2.263749    0.119088
      7          6           0        0.540639    1.555980   -0.144063
      8          7           0       -0.666090    2.242807   -0.310596
      9          6           0       -1.948311    1.693093   -0.271880
     10          8           0       -1.988662    0.654357    0.564522
     11          6           0       -2.917198   -0.466678    0.334994
     12          6           0       -2.387484   -1.531218    1.293526
     13          6           0       -2.790304   -0.936322   -1.114659
     14          6           0       -4.337285   -0.032829    0.692616
     15          8           0       -2.872501    2.185299   -0.890191
     16          7           0        0.520337    0.225079   -0.278180
     17          1           0        3.772854   -0.441146    0.292172
     18          1           0        4.866364    1.702916    1.176562
     19          1           0        4.760262    2.426451   -0.429287
     20          1           0        4.049900    3.262456    0.956353
     21          1           0        1.697399    3.342958    0.230980
     22          1           0       -0.632490    3.155951   -0.739914
     23          1           0       -1.361068   -1.800477    1.031952
     24          1           0       -2.402394   -1.160749    2.322374
     25          1           0       -3.013755   -2.426442    1.238048
     26          1           0       -1.747008   -1.177199   -1.334527
     27          1           0       -3.138803   -0.170040   -1.809768
     28          1           0       -3.397833   -1.834479   -1.259887
     29          1           0       -5.016645   -0.887054    0.608911
     30          1           0       -4.372384    0.334063    1.722638
     31          1           0       -4.675567    0.760462    0.025465
 ---------------------------------------------------------------------

 SCF Done:  E(RM062X) =  -3262.36290384     A.U. after    1 cycles

      1  Br   Isotropic =  1905.0361   Anisotropy =  1506.4754

      2  C    Isotropic =     4.4704   Anisotropy =   110.0017

      3  C    Isotropic =    43.3759   Anisotropy =   147.5992

      4  C    Isotropic =     7.4302   Anisotropy =   248.7447

      5  C    Isotropic =   163.3919   Anisotropy =    41.3192

      6  C    Isotropic =    56.6932   Anisotropy =   146.8591

      7  C    Isotropic =    10.8116   Anisotropy =   160.5544

      8  N    Isotropic =   112.6279   Anisotropy =   100.4601

      9  C    Isotropic =    15.2134   Anisotropy =    77.9945

     10  O    Isotropic =   107.1155   Anisotropy =   133.3743

     11  C    Isotropic =    96.8513   Anisotropy =    82.0626

     12  C    Isotropic =   153.1686   Anisotropy =    46.1318

     13  C    Isotropic =   159.2728   Anisotropy =    38.1999

     14  C    Isotropic =   156.2602   Anisotropy =    44.4222

     15  O    Isotropic =   -67.6934   Anisotropy =   498.9884

     16  N    Isotropic =   -97.5078   Anisotropy =   490.6197

     17  H    Isotropic =    24.3343   Anisotropy =    11.6687

     18  H    Isotropic =    29.5961   Anisotropy =     7.6764

     19  H    Isotropic =    29.4892   Anisotropy =     8.5857

     20  H    Isotropic =    29.7458   Anisotropy =     7.6932

     21  H    Isotropic =    25.0845   Anisotropy =     8.9096

     22  H    Isotropic =    25.7631   Anisotropy =     6.1522

     23  H    Isotropic =    29.7119   Anisotropy =    11.0863

     24  H    Isotropic =    30.6455   Anisotropy =     7.1215

     25  H    Isotropic =    30.9454   Anisotropy =     8.2431

     26  H    Isotropic =    29.8905   Anisotropy =     8.6364

     27  H    Isotropic =    29.6911   Anisotropy =     5.9855

     28  H    Isotropic =    30.9276   Anisotropy =     8.7406

     29  H    Isotropic =    30.9341   Anisotropy =     9.2146

     30  H    Isotropic =    30.5763   Anisotropy =     8.0837

     31  H    Isotropic =    29.1957   Anisotropy =     7.2456

 The electronic state is 1-A.
 Alpha  occ. eigenvalues -- -485.37527 -63.36012 -57.17953 -57.17723 -57.17711
 Alpha  occ. eigenvalues --  -19.65564 -19.60636 -14.79162 -14.76498 -10.70052
 Alpha  occ. eigenvalues --  -10.64421 -10.64318 -10.60590 -10.59006 -10.56477
 Alpha  occ. eigenvalues --  -10.56382 -10.55729 -10.52053 -10.51867 -10.51833
 Alpha  occ. eigenvalues --   -9.02652  -6.85048  -6.84197  -6.84157  -2.88424
 Alpha  occ. eigenvalues --   -2.88121  -2.88078  -2.87287  -2.87286  -1.23059
 Alpha  occ. eigenvalues --   -1.13778  -1.10492  -1.03741  -0.94315  -0.91092
 Alpha  occ. eigenvalues --   -0.90028  -0.83869  -0.82342  -0.78140  -0.78035
 Alpha  occ. eigenvalues --   -0.74903  -0.73101  -0.69046  -0.63599  -0.61548
 Alpha  occ. eigenvalues --   -0.59090  -0.58353  -0.57789  -0.55845  -0.53975
 Alpha  occ. eigenvalues --   -0.52615  -0.51515  -0.50434  -0.50111  -0.48883
 Alpha  occ. eigenvalues --   -0.48511  -0.47985  -0.46984  -0.45386  -0.44656
 Alpha  occ. eigenvalues --   -0.44259  -0.42579  -0.42196  -0.41923  -0.40361
 Alpha  occ. eigenvalues --   -0.39653  -0.37196  -0.36568  -0.35398  -0.35043
 Alpha  occ. eigenvalues --   -0.34363  -0.33557  -0.29521
 Alpha virt. eigenvalues --   -0.01204  -0.00446   0.03444   0.05687   0.06952
 Alpha virt. eigenvalues --    0.07567   0.07928   0.10299   0.10718   0.11272
 Alpha virt. eigenvalues --    0.12157   0.12614   0.13370   0.13687   0.14298

 Mulliken charges:
               1
     1  Br  -0.103033
     2  C    0.132584
     3  C   -0.241563
     4  C    0.120480
     5  C   -0.469595
     6  C   -0.277296
     7  C    0.396597
     8  N   -0.398703
     9  C    0.445884
    10  O   -0.260946
    11  C    0.090405
    12  C   -0.394649
    13  C   -0.458023
    14  C   -0.420361
    15  O   -0.380966
    16  N   -0.257656
    17  H    0.172219
    18  H    0.157859
    19  H    0.170339
    20  H    0.149754
    21  H    0.165744
    22  H    0.258073
    23  H    0.146680
    24  H    0.150396
    25  H    0.140873
    26  H    0.169241
    27  H    0.177343
    28  H    0.150198
    29  H    0.142876
    30  H    0.146853
    31  H    0.178392
 Sum of Mulliken charges =  -0.00000

 Dipole moment (field-independent basis, Debye):
    X=              3.5223    Y=              1.4178    Z=              0.9195  Tot=              3.9067
 Quadrupole moment (field-independent basis, Debye-Ang):
   XX=           -100.9809   YY=           -101.8580   ZZ=           -111.2769
   XY=             15.8403   XZ=             -1.7259   YZ=              0.9461

 Normal termination of Gaussian 16 at Wed Aug 14 19:40:21 2024.
