 Gaussian 16, Revision C.01,

 ----------------------------------------------------------------------
 # B3LYP/6-31G(d,p) symmetry=loose empiricaldispersion=GD3BJ int=(grid=
 ultrafine) opt freq=noraman
 ----------------------------------------------------------------------

 ----------
 pyrd10.xyz
 ----------
 Symbolic Z-matrix:
 Charge =  0 Multiplicity = 1

 SCF Done:  E(RB3LYP) =  -2937.38824717     A.U. after   14 cycles
 SCF Done:  E(RB3LYP) =  -2937.39053162     A.U. after   14 cycles
 SCF Done:  E(RB3LYP) =  -2937.39066579     A.U. after   12 cycles
 SCF Done:  E(RB3LYP) =  -2937.39105950     A.U. after   12 cycles
 SCF Done:  E(RB3LYP) =  -2937.39124725     A.U. after   12 cycles
 SCF Done:  E(RB3LYP) =  -2937.39126699     A.U. after   11 cycles
 SCF Done:  E(RB3LYP) =  -2937.39127566     A.U. after   10 cycles
 SCF Done:  E(RB3LYP) =  -2937.39127814     A.U. after    8 cycles
 SCF Done:  E(RB3LYP) =  -2937.39127844     A.U. after    8 cycles
 Optimization completed.
    -- Stationary point found.
 Normal termination of Gaussian 16 at Wed Aug 14 18:47:33 2024.

 ----------------------------------------------------------------------
 #N Geom=AllCheck Guess=TCheck SCRF=Check GenChk RB3LYP/6-31G(d,p) Freq
 ----------------------------------------------------------------------

 Structure from the checkpoint file:  "pyrd10_conf-1.chk"
 ----------
 pyrd10.xyz
 ----------
 Charge =  0 Multiplicity = 1

 SCF Done:  E(RB3LYP) =  -2937.39127844     A.U. after    1 cycles

                      1                      2                      3
                      A                      A                      A
 Frequencies --     38.6036                63.9105               113.6893
 Red. masses --      4.9511                 7.5140                 3.5561
 Frc consts  --      0.0043                 0.0181                 0.0271
 IR Inten    --      0.3459                 0.2556                 1.1769

                      4                      5                      6
                      A                      A                      A
 Frequencies --    142.5981               237.2465               308.7345
 Red. masses --      5.0776                 2.6652                 2.6495
 Frc consts  --      0.0608                 0.0884                 0.1488
 IR Inten    --      1.6252                 2.0503                 0.9548

                      7                      8                      9
                      A                      A                      A
 Frequencies --    349.4597               410.9925               426.4933
 Red. masses --      2.5024                 2.8210                 2.6283
 Frc consts  --      0.1801                 0.2808                 0.2817
 IR Inten    --      0.3278                 3.5084                 2.7451

                     10                     11                     12
                      A                      A                      A
 Frequencies --    504.3432               555.2549               610.0687
 Red. masses --      4.2445                 3.4242                 4.0328
 Frc consts  --      0.6361                 0.6220                 0.8843
 IR Inten    --      0.2376                11.2597                 0.7832

                     13                     14                     15
                      A                      A                      A
 Frequencies --    645.8193               736.0432               765.9864
 Red. masses --      6.0645                 2.0265                 1.8492
 Frc consts  --      1.4903                 0.6469                 0.6393
 IR Inten    --      5.3844                23.4559                10.8876

                     16                     17                     18
                      A                      A                      A
 Frequencies --    810.1080               833.3926               876.0986
 Red. masses --      1.9212                 2.1103                 2.5187
 Frc consts  --      0.7429                 0.8635                 1.1390
 IR Inten    --      8.7013                 9.8311                 4.7388

                     19                     20                     21
                      A                      A                      A
 Frequencies --    956.6975               970.0890               985.8166
 Red. masses --      1.3198                 1.4131                 1.6436
 Frc consts  --      0.7117                 0.7835                 0.9411
 IR Inten    --      0.3981                 2.2211                 0.7027

                     22                     23                     24
                      A                      A                      A
 Frequencies --    995.2936              1001.1674              1045.6203
 Red. masses --      1.5809                 1.4580                 4.1798
 Frc consts  --      0.9227                 0.8610                 2.6925
 IR Inten    --      2.8858                 1.9362                 7.8653

                     25                     26                     27
                      A                      A                      A
 Frequencies --   1073.6823              1084.4399              1140.8772
 Red. masses --      2.5927                 2.2486                 1.4625
 Frc consts  --      1.7610                 1.5580                 1.1216
 IR Inten    --      0.0242                 1.9749                 5.4826

                     28                     29                     30
                      A                      A                      A
 Frequencies --   1155.6565              1173.1233              1226.8938
 Red. masses --      1.1877                 1.1831                 1.7659
 Frc consts  --      0.9346                 0.9593                 1.5662
 IR Inten    --      2.0038                 0.7444                 6.4257

                     31                     32                     33
                      A                      A                      A
 Frequencies --   1254.6039              1271.2273              1306.9091
 Red. masses --      1.6986                 1.3736                 1.4732
 Frc consts  --      1.5753                 1.3079                 1.4825
 IR Inten    --      0.6765                29.1926                26.7144

                     34                     35                     36
                      A                      A                      A
 Frequencies --   1318.5047              1368.7928              1387.1088
 Red. masses --      2.6728                 1.4334                 1.2155
 Frc consts  --      2.7377                 1.5823                 1.3779
 IR Inten    --      3.0643                 3.9752                 1.6415

                     37                     38                     39
                      A                      A                      A
 Frequencies --   1394.6832              1468.3063              1482.5666
 Red. masses --      1.4272                 2.2195                 1.0979
 Frc consts  --      1.6357                 2.8193                 1.4218
 IR Inten    --      6.5873                23.1162                 4.6040

                     40                     41                     42
                      A                      A                      A
 Frequencies --   1494.4516              1506.6181              1526.5399
 Red. masses --      1.1184                 1.1125                 2.1846
 Frc consts  --      1.4716                 1.4878                 2.9994
 IR Inten    --     10.6500                10.7484                15.4455

                     43                     44                     45
                      A                      A                      A
 Frequencies --   1628.2486              1651.4147              3028.4210
 Red. masses --      5.1736                 5.6369                 1.0657
 Frc consts  --      8.0814                 9.0574                 5.7586
 IR Inten    --     11.6395                 2.7362                18.4678

                     46                     47                     48
                      A                      A                      A
 Frequencies --   3060.0337              3091.7306              3109.2688
 Red. masses --      1.0624                 1.0962                 1.1025
 Frc consts  --      5.8611                 6.1736                 6.2799
 IR Inten    --     19.2366                23.6846                10.6787

                     49                     50                     51
                      A                      A                      A
 Frequencies --   3120.4596              3163.1229              3166.6742
 Red. masses --      1.0581                 1.0886                 1.0908
 Frc consts  --      6.0706                 6.4172                 6.4450
 IR Inten    --     12.5671                19.1715                 7.6491

                     52                     53                     54
                      A                      A                      A
 Frequencies --   3174.4740              3187.7890              3206.0085
 Red. masses --      1.0902                 1.1116                 1.0963
 Frc consts  --      6.4727                 6.6552                 6.6391
 IR Inten    --     17.6211                 5.0291                20.3005

 - Thermochemistry -
 -------------------
 Temperature   298.150 Kelvin.  Pressure   1.00000 Atm.
 Atom     1 has atomic number 35 and mass  78.91834

 Molecular mass:   198.99966 amu.
 Principal axes and moments of inertia in atomic units:
                                 1                 2                 3
     Eigenvalues --          854.976456       3906.625197       4445.778613
           X                   0.999878         -0.015583         -0.001421
           Y                   0.015577          0.999869         -0.004335
           Z                   0.001488          0.004313          0.999990
 This molecule is an asymmetric top.
 Rotational symmetry number  1.
 Warning -- assumption of classical behavior for rotation
           may cause significant error
 Rotational temperatures (Kelvin)      0.10131     0.02217     0.01948
 Rotational constants (GHZ):           2.11087     0.46197     0.40594
 Zero-point vibrational energy     434281.3 (Joules/Mol)
                                  103.79571 (Kcal/Mol)
 Warning -- explicit consideration of  12 degrees of freedom as
           vibrations may cause significant error
 Vibrational temperatures:     55.54    91.95   163.57   205.17   341.34
          (Kelvin)            444.20   502.79   591.33   613.63   725.64
                              798.89   877.75   929.19  1059.00  1102.08
                             1165.56  1199.07  1260.51  1376.47  1395.74
                             1418.37  1432.01  1440.46  1504.41  1544.79
                             1560.27  1641.47  1662.73  1687.86  1765.23
                             1805.10  1829.01  1880.35  1897.03  1969.39
                             1995.74  2006.64  2112.57  2133.08  2150.18
                             2167.69  2196.35  2342.69  2376.02  4357.22
                             4402.71  4448.31  4473.54  4489.65  4551.03
                             4556.14  4567.36  4586.52  4612.73

 Zero-point correction=                           0.165409 (Hartree/Particle)
 Thermal correction to Energy=                    0.174680
 Thermal correction to Enthalpy=                  0.175625
 Thermal correction to Gibbs Free Energy=         0.128676
 Sum of electronic and zero-point Energies=          -2937.225869
 Sum of electronic and thermal Energies=             -2937.216598
 Sum of electronic and thermal Enthalpies=           -2937.215654
 Sum of electronic and thermal Free Energies=        -2937.262603

                     E (Thermal)             CV                S
                      KCal/Mol        Cal/Mol-Kelvin    Cal/Mol-Kelvin
 Total                  109.614             34.428             98.812
 Electronic               0.000              0.000              0.000
 Translational            0.889              2.981             41.769
 Rotational               0.889              2.981             31.074
 Vibrational            107.836             28.466             25.969
 Vibration     1          0.594              1.981              5.329
 Vibration     2          0.597              1.972              4.333
 Vibration     3          0.607              1.938              3.205
 Vibration     4          0.616              1.911              2.769
 Vibration     5          0.656              1.784              1.823
 Vibration     6          0.698              1.657              1.369
 Vibration     7          0.727              1.576              1.169
 Vibration     8          0.775              1.446              0.923
 Vibration     9          0.788              1.413              0.870
 Vibration    10          0.860              1.240              0.647
 Vibration    11          0.911              1.128              0.533
 Vibration    12          0.969              1.011              0.433

 Optimization completed.
    -- Stationary point found.
 Normal termination of Gaussian 16 at Wed Aug 14 18:48:51 2024.

 ----------------------------------------------------------------------
 # M062X/def2tzvp int=(grid=ultrafine) pop=nbo7 polar prop=efg volume g
 uess=read geom=check
 ----------------------------------------------------------------------

 ----------
 pyrd10.xyz
 ----------
 Structure from the checkpoint file:  "pyrd10_conf-1.chk"
 Charge =  0 Multiplicity = 1

 SCF Done:  E(RM062X) =  -2939.79020560     A.U. after   12 cycles

  Exact polarizability:     143.657       0.328     117.531      11.141       0.914      84.633
 Approx polarizability:     165.673       5.423     161.536      19.545       3.234     118.260

 Summary of Natural Population Analysis:

                                     Natural Population
             Natural    ---------------------------------------------
  Atom No    Charge        Core      Valence    Rydberg      Total
 --------------------------------------------------------------------
   Br  1   -0.05968     27.99997     7.04932    0.01039    35.05968
    C  2   -0.39722      1.99999     4.37808    0.01914     6.39722
    C  3   -0.41651      1.99999     4.40317    0.01335     6.41651
    C  4   -0.42677      1.99999     4.41329    0.01348     6.42677
    C  5   -0.06744      1.99999     4.04939    0.01806     6.06744
    C  6    0.02280      1.99999     3.95488    0.02232     5.97720
    N  7   -0.41008      1.99999     5.37824    0.03185     7.41008
    C  8    0.02305      1.99999     3.95465    0.02231     5.97695
    C  9   -0.25205      1.99999     4.23587    0.01618     6.25205
    C 10   -0.17870      1.99999     4.16173    0.01698     6.17870
    H 11    0.22557      0.00000     0.77287    0.00156     0.77443
    H 12    0.22349      0.00000     0.77457    0.00193     0.77651
    H 13    0.21536      0.00000     0.78303    0.00161     0.78464
    H 14    0.21782      0.00000     0.78035    0.00183     0.78218
    H 15    0.22987      0.00000     0.76816    0.00197     0.77013
    H 16    0.21899      0.00000     0.77947    0.00154     0.78101
    H 17    0.20315      0.00000     0.79487    0.00197     0.79685
    H 18    0.19473      0.00000     0.80385    0.00142     0.80527
    H 19    0.22069      0.00000     0.77818    0.00113     0.77931
    H 20    0.21290      0.00000     0.78559    0.00151     0.78710
 ====================================================================
 * Total *  0.00000     45.99990    53.79956    0.20055   100.00000

 Normal termination of Gaussian 16 at Wed Aug 14 18:52:58 2024.
 Gaussian 16:  ES64L-G16RevC.01  3-Jul-2019

 --------------------------------------------------------------------
 # M062X/def2tzvp int=(grid=ultrafine) nmr=giao guess=read geom=check
 --------------------------------------------------------------------

 ----------
 pyrd10.xyz
 ----------
 Structure from the checkpoint file:  "pyrd10_conf-1.chk"
 Charge =  0 Multiplicity = 1

                         Standard orientation:
 ---------------------------------------------------------------------
 Center     Atomic      Atomic             Coordinates (Angstroms)
 Number     Number       Type             X           Y           Z
 ---------------------------------------------------------------------
      1         35           0       -2.464452   -0.516690   -0.081598
      2          6           0       -1.316909    0.601585    1.090333
      3          6           0       -0.710769    1.767489    0.328895
      4          6           0        0.179290    1.362283   -0.862071
      5          6           0        1.361528    0.514356   -0.462035
      6          6           0        1.267332   -0.883572   -0.397944
      7          7           0        2.265550   -1.691357   -0.021437
      8          6           0        3.427641   -1.118226    0.312881
      9          6           0        3.637987    0.260621    0.288406
     10          6           0        2.586541    1.084618   -0.103642
     11          1           0       -1.971717    0.930133    1.895633
     12          1           0       -0.564142   -0.083240    1.478084
     13          1           0       -0.114904    2.343673    1.050631
     14          1           0       -1.511462    2.424096   -0.026864
     15          1           0       -0.439711    0.823158   -1.585378
     16          1           0        0.531218    2.274263   -1.355609
     17          1           0        0.328247   -1.368906   -0.658637
     18          1           0        4.227507   -1.792299    0.612724
     19          1           0        4.602275    0.673980    0.566000
     20          1           0        2.713814    2.163875   -0.139525
 ---------------------------------------------------------------------

 SCF Done:  E(RM062X) =  -2939.79020560     A.U. after    1 cycles

      1  Br   Isotropic =  2402.6544   Anisotropy =   823.7939

      2  C    Isotropic =   138.6540   Anisotropy =    61.3955

      3  C    Isotropic =   148.6238   Anisotropy =    17.7561

      4  C    Isotropic =   153.8044   Anisotropy =    27.1789

      5  C    Isotropic =    27.2832   Anisotropy =   224.7941

      6  C    Isotropic =     8.3600   Anisotropy =   196.1271

      7  N    Isotropic =  -155.3399   Anisotropy =   682.0066

      8  C    Isotropic =    12.3385   Anisotropy =   205.7955

      9  C    Isotropic =    41.5624   Anisotropy =   202.8451

     10  C    Isotropic =    26.7586   Anisotropy =   215.5148

     11  H    Isotropic =    28.3657   Anisotropy =    11.8638

     12  H    Isotropic =    28.6862   Anisotropy =     7.7438

     13  H    Isotropic =    30.2447   Anisotropy =    10.3878

     14  H    Isotropic =    29.8866   Anisotropy =     8.9694

     15  H    Isotropic =    28.4282   Anisotropy =     5.1203

     16  H    Isotropic =    29.2554   Anisotropy =     9.0906

     17  H    Isotropic =    21.8232   Anisotropy =    10.9774

     18  H    Isotropic =    22.3790   Anisotropy =     6.9570

     19  H    Isotropic =    23.9862   Anisotropy =     6.6116

     20  H    Isotropic =    23.7479   Anisotropy =     9.6047

 The electronic state is 1-A.
 Alpha  occ. eigenvalues -- -485.36296 -63.34790 -57.16730 -57.16498 -57.16496
 Alpha  occ. eigenvalues --  -14.75033 -10.60090 -10.57698 -10.57516 -10.56370
 Alpha  occ. eigenvalues --  -10.56132 -10.56056 -10.55463 -10.55293  -9.01416
 Alpha  occ. eigenvalues --   -6.83800  -6.82954  -6.82946  -2.87167  -2.86865
 Alpha  occ. eigenvalues --   -2.86858  -2.86068  -2.86067  -1.05255  -0.94283
 Alpha  occ. eigenvalues --   -0.90827  -0.87504  -0.83789  -0.77699  -0.71969
 Alpha  occ. eigenvalues --   -0.71008  -0.66641  -0.59965  -0.57060  -0.55811
 Alpha  occ. eigenvalues --   -0.53652  -0.52269  -0.49464  -0.47816  -0.47296
 Alpha  occ. eigenvalues --   -0.46266  -0.44737  -0.43517  -0.41382  -0.40150
 Alpha  occ. eigenvalues --   -0.34696  -0.33977  -0.33918  -0.32336  -0.31256
 Alpha virt. eigenvalues --   -0.00240   0.01013   0.03055   0.06119   0.08786
 Alpha virt. eigenvalues --    0.09417   0.09743   0.10652   0.12154   0.12844
 Alpha virt. eigenvalues --    0.13560   0.14613   0.15842   0.16488   0.17622

 Mulliken charges:
               1
     1  Br  -0.153570
     2  C   -0.257749
     3  C   -0.255632
     4  C   -0.430872
     5  C    0.115582
     6  C   -0.134184
     7  N   -0.216613
     8  C   -0.057144
     9  C   -0.155296
    10  C   -0.136123
    11  H    0.178348
    12  H    0.196671
    13  H    0.153155
    14  H    0.164050
    15  H    0.203257
    16  H    0.163598
    17  H    0.181262
    18  H    0.144814
    19  H    0.142066
    20  H    0.154383
 Sum of Mulliken charges =  -0.00000

 Dipole moment (field-independent basis, Debye):
    X=              1.2016    Y=              3.6442    Z=              0.9616  Tot=              3.9559
 Quadrupole moment (field-independent basis, Debye-Ang):
   XX=            -71.2677   YY=            -73.7716   ZZ=            -72.4105
   XY=              2.7659   XZ=              1.0263   YZ=              0.6405

 Normal termination of Gaussian 16 at Wed Aug 14 18:54:31 2024.
