 Gaussian 16, Revision C.01,

 ----------------------------------------------------------------------
 # B3LYP/6-31G(d,p) symmetry=loose empiricaldispersion=GD3BJ int=(grid=
 ultrafine) opt=calcfc freq=noraman
 ----------------------------------------------------------------------

 ----------
 pyrd10.xyz
 ----------
 Symbolic Z-matrix:
 Charge =  0 Multiplicity = 1

 SCF Done:  E(RB3LYP) =  -2937.38174765     A.U. after   14 cycles
 SCF Done:  E(RB3LYP) =  -2937.38395724     A.U. after   14 cycles
 SCF Done:  E(RB3LYP) =  -2937.38415854     A.U. after   14 cycles
 SCF Done:  E(RB3LYP) =  -2937.38424227     A.U. after   12 cycles
 SCF Done:  E(RB3LYP) =  -2937.38392786     A.U. after   15 cycles
 SCF Done:  E(RB3LYP) =  -2937.38430344     A.U. after   15 cycles
 SCF Done:  E(RB3LYP) =  -2937.38471260     A.U. after   11 cycles
 SCF Done:  E(RB3LYP) =  -2937.38560845     A.U. after   14 cycles
 SCF Done:  E(RB3LYP) =  -2937.38570752     A.U. after   14 cycles
 SCF Done:  E(RB3LYP) =  -2937.38555805     A.U. after   11 cycles
 SCF Done:  E(RB3LYP) =  -2937.38583999     A.U. after   12 cycles
 SCF Done:  E(RB3LYP) =  -2937.38584250     A.U. after   10 cycles
 SCF Done:  E(RB3LYP) =  -2937.38584183     A.U. after    9 cycles
 SCF Done:  E(RB3LYP) =  -2937.38583829     A.U. after    9 cycles
 SCF Done:  E(RB3LYP) =  -2937.38584221     A.U. after    9 cycles
 SCF Done:  E(RB3LYP) =  -2937.38584244     A.U. after    7 cycles
 SCF Done:  E(RB3LYP) =  -2937.38584237     A.U. after    7 cycles
 Optimization completed.
    -- Stationary point found.
 Normal termination of Gaussian 16 at Fri Aug 16 13:57:10 2024.

 ----------------------------------------------------------------------
 #N Geom=AllCheck Guess=TCheck SCRF=Check GenChk RB3LYP/6-31G(d,p) Freq
 ----------------------------------------------------------------------

 Structure from the checkpoint file:  "pyrd10_conf-10.chk"
 ----------
 pyrd10.xyz
 ----------
 Charge =  0 Multiplicity = 1

 SCF Done:  E(RB3LYP) =  -2937.38584237     A.U. after    1 cycles

                      1                      2                      3
                      A                      A                      A
 Frequencies --     24.8425                57.7472                85.1045
 Red. masses --      4.5117                 6.6355                 2.0323
 Frc consts  --      0.0016                 0.0130                 0.0087
 IR Inten    --      1.8906                 0.5239                 0.3308

                      4                      5                      6
                      A                      A                      A
 Frequencies --    108.1541               181.7619               226.4486
 Red. masses --      2.6591                 4.8988                 5.7312
 Frc consts  --      0.0183                 0.0954                 0.1732
 IR Inten    --      0.6166                 0.9800                 1.0662

                      7                      8                      9
                      A                      A                      A
 Frequencies --    324.0475               344.0506               413.6026
 Red. masses --      3.1404                 2.5994                 3.2957
 Frc consts  --      0.1943                 0.1813                 0.3322
 IR Inten    --      1.8717                 2.5281                 3.3300

                     10                     11                     12
                      A                      A                      A
 Frequencies --    513.6181               587.3865               638.8035
 Red. masses --      4.1793                 5.1852                 7.1408
 Frc consts  --      0.6496                 1.0541                 1.7168
 IR Inten    --      5.0471                 3.2894                12.0735

                     13                     14                     15
                      A                      A                      A
 Frequencies --    674.0744               732.6418               748.1473
 Red. masses --      5.2675                 2.0280                 1.0866
 Frc consts  --      1.4102                 0.6414                 0.3583
 IR Inten    --     11.9176                22.3966                 2.3870

                     16                     17                     18
                      A                      A                      A
 Frequencies --    816.0555               827.5233               848.3947
 Red. masses --      1.8329                 1.2845                 3.8156
 Frc consts  --      0.7192                 0.5183                 1.6181
 IR Inten    --     12.9482                 0.4140                 0.3859

                     19                     20                     21
                      A                      A                      A
 Frequencies --    946.3985               965.4892               996.6321
 Red. masses --      1.3413                 1.4400                 1.3748
 Frc consts  --      0.7078                 0.7909                 0.8046
 IR Inten    --      0.1113                 0.3771                 0.0468

                     22                     23                     24
                      A                      A                      A
 Frequencies --   1022.0976              1025.2040              1045.2903
 Red. masses --      1.8811                 2.1870                 3.7744
 Frc consts  --      1.1578                 1.3543                 2.4298
 IR Inten    --      0.1444                 0.6467                13.3937

                     25                     26                     27
                      A                      A                      A
 Frequencies --   1065.3162              1074.4186              1116.6102
 Red. masses --      3.8161                 2.5782                 1.2303
 Frc consts  --      2.5517                 1.7535                 0.9038
 IR Inten    --      2.7674                 0.4465                 0.8286

                     28                     29                     30
                      A                      A                      A
 Frequencies --   1155.3481              1226.9194              1231.7893
 Red. masses --      1.2853                 1.6161                 1.2368
 Frc consts  --      1.0108                 1.4334                 1.1057
 IR Inten    --      4.8080                13.5424                18.0782

                     31                     32                     33
                      A                      A                      A
 Frequencies --   1253.1530              1279.7591              1317.4408
 Red. masses --      1.7789                 1.5342                 2.6294
 Frc consts  --      1.6460                 1.4805                 2.6889
 IR Inten    --      1.2589                 3.0663                 0.4036

                     34                     35                     36
                      A                      A                      A
 Frequencies --   1324.5805              1327.5422              1378.1898
 Red. masses --      1.3882                 1.2515                 1.2231
 Frc consts  --      1.4350                 1.2995                 1.3688
 IR Inten    --     26.2918                 0.9974                 2.2018

                     37                     38                     39
                      A                      A                      A
 Frequencies --   1387.6805              1470.6055              1496.3632
 Red. masses --      1.4665                 2.3356                 1.1059
 Frc consts  --      1.6638                 2.9761                 1.4589
 IR Inten    --      1.6688                23.7346                 0.2767

                     40                     41                     42
                      A                      A                      A
 Frequencies --   1501.6761              1518.1610              1523.5082
 Red. masses --      1.0945                 1.0990                 2.2450
 Frc consts  --      1.4542                 1.4924                 3.0702
 IR Inten    --      0.3820                 3.7212                14.4041

                     43                     44                     45
                      A                      A                      A
 Frequencies --   1629.8814              1651.0367              3037.5222
 Red. masses --      5.2705                 5.8383                 1.0594
 Frc consts  --      8.2493                 9.3767                 5.7593
 IR Inten    --     11.4754                 1.6299                20.9949

                     46                     47                     48
                      A                      A                      A
 Frequencies --   3064.7710              3077.7226              3104.1524
 Red. masses --      1.0603                 1.1031                 1.0567
 Frc consts  --      5.8680                 6.1566                 5.9991
 IR Inten    --     12.1934                 7.7871                17.5483

                     49                     50                     51
                      A                      A                      A
 Frequencies --   3110.9569              3147.1227              3168.3338
 Red. masses --      1.1058                 1.0898                 1.0891
 Frc consts  --      6.3053                 6.3594                 6.4412
 IR Inten    --     13.1387                29.5584                13.4955

                     52                     53                     54
                      A                      A                      A
 Frequencies --   3171.4662              3176.9506              3207.9175
 Red. masses --      1.1115                 1.0903                 1.0963
 Frc consts  --      6.5869                 6.4836                 6.6472
 IR Inten    --      8.6870                17.6840                17.6837

 - Thermochemistry -
 -------------------
 Temperature   298.150 Kelvin.  Pressure   1.00000 Atm.
 Atom     1 has atomic number 35 and mass  78.91834

 Molecular mass:   198.99966 amu.
 Principal axes and moments of inertia in atomic units:
                                 1                 2                 3
     Eigenvalues --          580.137330       6747.899372       6829.102666
           X                   0.999903         -0.009306         -0.010398
           Y                   0.009515          0.999748          0.020314
           Z                   0.010206         -0.020411          0.999740
 This molecule is an asymmetric top.
 Rotational symmetry number  1.
 Warning -- assumption of classical behavior for rotation
           may cause significant error
 Rotational temperatures (Kelvin)      0.14930     0.01284     0.01268
 Rotational constants (GHZ):           3.11089     0.26745     0.26427
 Zero-point vibrational energy     432751.6 (Joules/Mol)
                                  103.43011 (Kcal/Mol)
 Warning -- explicit consideration of  11 degrees of freedom as
           vibrations may cause significant error
 Vibrational temperatures:     35.74    83.09   122.45   155.61   261.51
          (Kelvin)            325.81   466.23   495.01   595.08   738.98
                              845.12   919.10   969.84  1054.11  1076.42
                             1174.12  1190.62  1220.65  1361.66  1389.12
                             1433.93  1470.57  1475.04  1503.94  1532.75
                             1545.85  1606.55  1662.29  1765.26  1772.27
                             1803.01  1841.29  1895.50  1905.78  1910.04
                             1982.91  1996.56  2115.87  2152.93  2160.58
                             2184.30  2191.99  2345.04  2375.47  4370.32
                             4409.52  4428.16  4466.18  4475.97  4528.01
                             4558.53  4563.03  4570.92  4615.48

 Zero-point correction=                           0.164826 (Hartree/Particle)
 Thermal correction to Energy=                    0.174519
 Thermal correction to Enthalpy=                  0.175463
 Thermal correction to Gibbs Free Energy=         0.126579
 Sum of electronic and zero-point Energies=          -2937.221016
 Sum of electronic and thermal Energies=             -2937.211324
 Sum of electronic and thermal Enthalpies=           -2937.210380
 Sum of electronic and thermal Free Energies=        -2937.259263

                     E (Thermal)             CV                S
                      KCal/Mol        Cal/Mol-Kelvin    Cal/Mol-Kelvin
 Total                  109.512             34.757            102.884
 Electronic               0.000              0.000              0.000
 Translational            0.889              2.981             41.769
 Rotational               0.889              2.981             31.658
 Vibrational            107.735             28.796             29.456
 Vibration     1          0.593              1.985              6.204
 Vibration     2          0.596              1.974              4.533
 Vibration     3          0.601              1.960              3.770
 Vibration     4          0.606              1.943              3.302
 Vibration     5          0.630              1.865              2.310
 Vibration     6          0.650              1.801              1.907
 Vibration     7          0.709              1.627              1.290
 Vibration     8          0.723              1.587              1.193
 Vibration     9          0.777              1.441              0.914
 Vibration    10          0.869              1.220              0.625
 Vibration    11          0.945              1.059              0.472

 Optimization completed.
    -- Stationary point found.
 Normal termination of Gaussian 16 at Fri Aug 16 13:58:24 2024.

 ----------------------------------------------------------------------
 # M062X/def2tzvp int=(grid=ultrafine) pop=nbo7 polar prop=efg volume g
 uess=read geom=check
 ----------------------------------------------------------------------

 ----------
 pyrd10.xyz
 ----------
 Structure from the checkpoint file:  "pyrd10_conf-10.chk"
 Charge =  0 Multiplicity = 1

 SCF Done:  E(RM062X) =  -2939.78807921     A.U. after   11 cycles

  Exact polarizability:     155.153      -4.652     107.432      -8.908      -2.252      91.823
 Approx polarizability:     164.499      -3.948     151.610     -11.388      -5.448     126.333

 Summary of Natural Population Analysis:

                                     Natural Population
             Natural    ---------------------------------------------
  Atom No    Charge        Core      Valence    Rydberg      Total
 --------------------------------------------------------------------
   Br  1   -0.04086     27.99997     7.03063    0.01027    35.04086
    C  2   -0.39428      1.99999     4.37591    0.01838     6.39428
    C  3   -0.41612      1.99999     4.40118    0.01494     6.41612
    C  4   -0.41686      1.99999     4.40405    0.01282     6.41686
    C  5   -0.05899      1.99999     4.04188    0.01712     6.05899
    C  6    0.03183      1.99999     3.94608    0.02210     5.96817
    N  7   -0.40809      1.99999     5.37623    0.03186     7.40809
    C  8    0.02423      1.99999     3.95348    0.02230     5.97577
    C  9   -0.24936      1.99999     4.23319    0.01618     6.24936
    C 10   -0.17638      1.99999     4.15974    0.01665     6.17638
    H 11    0.21529      0.00000     0.78279    0.00193     0.78471
    H 12    0.21425      0.00000     0.78379    0.00195     0.78575
    H 13    0.21328      0.00000     0.78472    0.00200     0.78672
    H 14    0.21671      0.00000     0.78133    0.00196     0.78329
    H 15    0.21152      0.00000     0.78647    0.00201     0.78848
    H 16    0.21305      0.00000     0.78504    0.00191     0.78695
    H 17    0.18959      0.00000     0.80881    0.00161     0.81041
    H 18    0.19553      0.00000     0.80307    0.00140     0.80447
    H 19    0.22164      0.00000     0.77723    0.00113     0.77836
    H 20    0.21405      0.00000     0.78446    0.00149     0.78595
 ====================================================================
 * Total *  0.00000     45.99990    53.80008    0.20002   100.00000

 Normal termination of Gaussian 16 at Fri Aug 16 14:02:07 2024.
 Gaussian 16:  ES64L-G16RevC.01  3-Jul-2019

 --------------------------------------------------------------------
 # M062X/def2tzvp int=(grid=ultrafine) nmr=giao guess=read geom=check
 --------------------------------------------------------------------

 ----------
 pyrd10.xyz
 ----------
 Structure from the checkpoint file:  "pyrd10_conf-10.chk"
 Charge =  0 Multiplicity = 1

                         Standard orientation:
 ---------------------------------------------------------------------
 Center     Atomic      Atomic             Coordinates (Angstroms)
 Number     Number       Type             X           Y           Z
 ---------------------------------------------------------------------
      1         35           0       -3.367504   -0.158310   -0.372046
      2          6           0       -1.888115    0.386849    0.821710
      3          6           0       -0.539287    0.087592    0.192585
      4          6           0        0.618581    0.499521    1.124269
      5          6           0        1.963523    0.202180    0.510530
      6          6           0        2.678440    1.188919   -0.178474
      7          7           0        3.854389    0.990341   -0.782907
      8          6           0        4.375162   -0.240739   -0.719567
      9          6           0        3.755363   -1.302548   -0.059815
     10          6           0        2.531344   -1.074146    0.562382
     11          1           0       -2.037792    1.451794    1.000493
     12          1           0       -2.046993   -0.164106    1.749005
     13          1           0       -0.468600   -0.981283   -0.033945
     14          1           0       -0.450708    0.617529   -0.761106
     15          1           0        0.521312   -0.029340    2.080290
     16          1           0        0.543845    1.570388    1.346658
     17          1           0        2.274618    2.199329   -0.238971
     18          1           0        5.332391   -0.384038   -1.216439
     19          1           0        4.223930   -2.280941   -0.033811
     20          1           0        2.019855   -1.876632    1.088048
 ---------------------------------------------------------------------

 SCF Done:  E(RM062X) =  -2939.78807921     A.U. after    1 cycles

      1  Br   Isotropic =  2327.3556   Anisotropy =  1039.7577

      2  C    Isotropic =   139.5184   Anisotropy =    50.9050

      3  C    Isotropic =   141.1952   Anisotropy =    58.7223

      4  C    Isotropic =   148.3617   Anisotropy =    32.8359

      5  C    Isotropic =    26.2665   Anisotropy =   225.6598

      6  C    Isotropic =    10.7585   Anisotropy =   185.5644

      7  N    Isotropic =  -156.0897   Anisotropy =   681.7429

      8  C    Isotropic =    12.0333   Anisotropy =   205.4135

      9  C    Isotropic =    41.7045   Anisotropy =   203.5746

     10  C    Isotropic =    26.8954   Anisotropy =   219.2063

     11  H    Isotropic =    28.5279   Anisotropy =     9.1765

     12  H    Isotropic =    28.5340   Anisotropy =     8.8674

     13  H    Isotropic =    29.9611   Anisotropy =     6.2443

     14  H    Isotropic =    29.9522   Anisotropy =     5.5595

     15  H    Isotropic =    29.3914   Anisotropy =     5.5426

     16  H    Isotropic =    29.3280   Anisotropy =     6.4515

     17  H    Isotropic =    22.4084   Anisotropy =    10.4376

     18  H    Isotropic =    22.4075   Anisotropy =     7.1106

     19  H    Isotropic =    23.9491   Anisotropy =     6.9543

     20  H    Isotropic =    23.6290   Anisotropy =     9.9106

 The electronic state is 1-A.
 Alpha  occ. eigenvalues -- -485.36278 -63.34783 -57.16725 -57.16487 -57.16485
 Alpha  occ. eigenvalues --  -14.75359 -10.60285 -10.58024 -10.57967 -10.56667
 Alpha  occ. eigenvalues --  -10.56567 -10.56167 -10.55909 -10.55719  -9.01424
 Alpha  occ. eigenvalues --   -6.83825  -6.82952  -6.82943  -2.87190  -2.86879
 Alpha  occ. eigenvalues --   -2.86872  -2.86057  -2.86057  -1.05620  -0.94407
 Alpha  occ. eigenvalues --   -0.91250  -0.88147  -0.84043  -0.77095  -0.72283
 Alpha  occ. eigenvalues --   -0.70600  -0.68483  -0.60394  -0.58008  -0.55206
 Alpha  occ. eigenvalues --   -0.54126  -0.51095  -0.49948  -0.48315  -0.47549
 Alpha  occ. eigenvalues --   -0.47051  -0.45586  -0.42735  -0.41848  -0.40965
 Alpha  occ. eigenvalues --   -0.35016  -0.33980  -0.33836  -0.32852  -0.31435
 Alpha virt. eigenvalues --   -0.00487   0.00867   0.02613   0.05689   0.08132
 Alpha virt. eigenvalues --    0.09011   0.09755   0.10070   0.12114   0.13115
 Alpha virt. eigenvalues --    0.13519   0.14198   0.15344   0.16328   0.16531

 Mulliken charges:
               1
     1  Br  -0.151925
     2  C   -0.209681
     3  C   -0.273881
     4  C   -0.447671
     5  C    0.129945
     6  C   -0.085485
     7  N   -0.219319
     8  C   -0.053843
     9  C   -0.154122
    10  C   -0.143618
    11  H    0.169542
    12  H    0.167203
    13  H    0.166587
    14  H    0.169230
    15  H    0.174116
    16  H    0.169952
    17  H    0.145172
    18  H    0.145228
    19  H    0.143297
    20  H    0.159272
 Sum of Mulliken charges =  -0.00000

 Dipole moment (field-independent basis, Debye):
    X=              0.5365    Y=             -1.1063    Z=              2.2343  Tot=              2.5503
 Quadrupole moment (field-independent basis, Debye-Ang):
   XX=            -85.1639   YY=            -70.4139   ZZ=            -73.5765
   XY=             -9.6658   XZ=             -0.2909   YZ=              1.1881

 Normal termination of Gaussian 16 at Fri Aug 16 14:03:37 2024.
