 Gaussian 16, Revision C.01,

 ----------------------------------------------------------------------
 # B3LYP/6-31G(d,p) symmetry=loose empiricaldispersion=GD3BJ int=(grid=
 ultrafine) opt freq=noraman
 ----------------------------------------------------------------------

 ----------
 pyrd10.xyz
 ----------
 Symbolic Z-matrix:
 Charge =  0 Multiplicity = 1

 SCF Done:  E(RB3LYP) =  -2937.38414090     A.U. after   14 cycles
 SCF Done:  E(RB3LYP) =  -2937.38628428     A.U. after   12 cycles
 SCF Done:  E(RB3LYP) =  -2937.38645138     A.U. after   11 cycles
 SCF Done:  E(RB3LYP) =  -2937.38646341     A.U. after   10 cycles
 SCF Done:  E(RB3LYP) =  -2937.38646475     A.U. after    9 cycles
 SCF Done:  E(RB3LYP) =  -2937.38646500     A.U. after    8 cycles
 SCF Done:  E(RB3LYP) =  -2937.38646502     A.U. after    7 cycles
 SCF Done:  E(RB3LYP) =  -2937.38646500     A.U. after    7 cycles
 Optimization completed.
    -- Stationary point found.
 Normal termination of Gaussian 16 at Wed Aug 14 18:47:28 2024.

 ----------------------------------------------------------------------
 #N Geom=AllCheck Guess=TCheck SCRF=Check GenChk RB3LYP/6-31G(d,p) Freq
 ----------------------------------------------------------------------

 Structure from the checkpoint file:  "pyrd10_conf-6.chk"
 ----------
 pyrd10.xyz
 ----------
 Charge =  0 Multiplicity = 1

 SCF Done:  E(RB3LYP) =  -2937.38646500     A.U. after    1 cycles

                      1                      2                      3
                      A                      A                      A
 Frequencies --     29.3304                46.8681                81.4516
 Red. masses --      5.0296                 6.0462                 2.4166
 Frc consts  --      0.0025                 0.0078                 0.0094
 IR Inten    --      1.6185                 0.3847                 1.1814

                      4                      5                      6
                      A                      A                      A
 Frequencies --    162.4505               197.0173               211.7564
 Red. masses --      2.8874                 3.7603                 4.8790
 Frc consts  --      0.0449                 0.0860                 0.1289
 IR Inten    --      0.1520                 1.5222                 0.9961

                      7                      8                      9
                      A                      A                      A
 Frequencies --    350.1477               365.3770               416.3172
 Red. masses --      2.0480                 3.5996                 3.4213
 Frc consts  --      0.1479                 0.2831                 0.3494
 IR Inten    --      0.5171                 1.8412                 3.8363

                     10                     11                     12
                      A                      A                      A
 Frequencies --    510.0483               584.1214               643.6405
 Red. masses --      4.3033                 3.8900                 6.9984
 Frc consts  --      0.6596                 0.7820                 1.7082
 IR Inten    --      1.9633                 4.3840                 3.6888

                     13                     14                     15
                      A                      A                      A
 Frequencies --    659.8623               732.4088               760.0490
 Red. masses --      3.2723                 2.0471                 1.3193
 Frc consts  --      0.8395                 0.6470                 0.4490
 IR Inten    --     21.2318                21.7008                 3.6413

                     16                     17                     18
                      A                      A                      A
 Frequencies --    802.7275               828.0161               876.0929
 Red. masses --      2.7582                 1.7526                 1.8983
 Frc consts  --      1.0472                 0.7080                 0.8585
 IR Inten    --      5.8849                 5.3149                11.3220

                     19                     20                     21
                      A                      A                      A
 Frequencies --    948.1788               963.0391               974.1085
 Red. masses --      1.3334                 1.5680                 1.8922
 Frc consts  --      0.7063                 0.8568                 1.0579
 IR Inten    --      0.0972                 0.3247                 3.4715

                     22                     23                     24
                      A                      A                      A
 Frequencies --    997.2958              1025.7012              1044.3756
 Red. masses --      1.3717                 1.7228                 3.8816
 Frc consts  --      0.8038                 1.0679                 2.4945
 IR Inten    --      0.1336                 3.0045                11.8874

                     25                     26                     27
                      A                      A                      A
 Frequencies --   1067.6847              1075.6236              1131.7017
 Red. masses --      2.5750                 2.5418                 1.3459
 Frc consts  --      1.7294                 1.7326                 1.0156
 IR Inten    --      0.2637                 0.4117                 4.6837

                     28                     29                     30
                      A                      A                      A
 Frequencies --   1156.6936              1209.3020              1226.9891
 Red. masses --      1.2866                 1.2920                 1.7631
 Frc consts  --      1.0142                 1.1132                 1.5639
 IR Inten    --      4.3409                 5.9213                 6.7689

                     31                     32                     33
                      A                      A                      A
 Frequencies --   1252.4387              1268.3081              1310.6833
 Red. masses --      1.6196                 1.2841                 1.4721
 Frc consts  --      1.4969                 1.2170                 1.4900
 IR Inten    --      0.2350                31.9479                 2.3724

                     34                     35                     36
                      A                      A                      A
 Frequencies --   1316.8280              1362.7931              1378.8338
 Red. masses --      2.7015                 1.3933                 1.3044
 Frc consts  --      2.7600                 1.5246                 1.4611
 IR Inten    --      1.2664                 1.5788                 3.1279

                     37                     38                     39
                      A                      A                      A
 Frequencies --   1384.8678              1469.9611              1497.3844
 Red. masses --      1.3384                 2.3161                 1.1020
 Frc consts  --      1.5124                 2.9486                 1.4558
 IR Inten    --      2.4749                20.9881                 6.3772

                     40                     41                     42
                      A                      A                      A
 Frequencies --   1503.0573              1507.7699              1523.1302
 Red. masses --      1.1025                 1.1046                 2.2291
 Frc consts  --      1.4676                 1.4796                 3.0468
 IR Inten    --      3.5963                 1.6238                12.0690

                     43                     44                     45
                      A                      A                      A
 Frequencies --   1629.6184              1650.8237              3045.0635
 Red. masses --      5.2438                 5.8282                 1.0608
 Frc consts  --      8.2047                 9.3581                 5.7951
 IR Inten    --     11.8969                 2.6870                24.5270

                     46                     47                     48
                      A                      A                      A
 Frequencies --   3062.3790              3089.0198              3106.0921
 Red. masses --      1.0619                 1.1015                 1.0748
 Frc consts  --      5.8673                 6.1924                 6.1098
 IR Inten    --      7.9140                15.7795                15.1306

                     49                     50                     51
                      A                      A                      A
 Frequencies --   3111.6863              3146.1739              3169.7551
 Red. masses --      1.0875                 1.0897                 1.0890
 Frc consts  --      6.2040                 6.3552                 6.4464
 IR Inten    --     16.9058                27.2630                12.1201

                     52                     53                     54
                      A                      A                      A
 Frequencies --   3177.5890              3180.4475              3208.3714
 Red. masses --      1.0903                 1.1099                 1.0963
 Frc consts  --      6.4863                 6.6145                 6.6492
 IR Inten    --     18.8969                 7.6811                16.6508

 - Thermochemistry -
 -------------------
 Temperature   298.150 Kelvin.  Pressure   1.00000 Atm.
 Atom     1 has atomic number 35 and mass  78.91834

 Molecular mass:   198.99966 amu.
 Principal axes and moments of inertia in atomic units:
                                 1                 2                 3
     Eigenvalues --          844.065606       5220.134647       5391.479122
           X                   0.999835          0.018158          0.000787
           Y                  -0.018076          0.997963         -0.061187
           Z                  -0.001896          0.061163          0.998126
 This molecule is an asymmetric top.
 Rotational symmetry number  1.
 Warning -- assumption of classical behavior for rotation
           may cause significant error
 Rotational temperatures (Kelvin)      0.10262     0.01659     0.01606
 Rotational constants (GHZ):           2.13815     0.34573     0.33474
 Zero-point vibrational energy     433236.3 (Joules/Mol)
                                  103.54596 (Kcal/Mol)
 Warning -- explicit consideration of  11 degrees of freedom as
           vibrations may cause significant error
 Vibrational temperatures:     42.20    67.43   117.19   233.73   283.46
          (Kelvin)            304.67   503.78   525.70   598.99   733.85
                              840.42   926.06   949.39  1053.77  1093.54
                             1154.95  1191.33  1260.50  1364.22  1385.60
                             1401.52  1434.89  1475.76  1502.62  1536.16
                             1547.58  1628.27  1664.22  1739.92  1765.36
                             1801.98  1824.81  1885.78  1894.62  1960.76
                             1983.83  1992.52  2114.95  2154.40  2162.56
                             2169.34  2191.44  2344.66  2375.17  4381.17
                             4406.08  4444.41  4468.97  4477.02  4526.64
                             4560.57  4571.84  4575.95  4616.13

 Zero-point correction=                           0.165011 (Hartree/Particle)
 Thermal correction to Energy=                    0.174576
 Thermal correction to Enthalpy=                  0.175521
 Thermal correction to Gibbs Free Energy=         0.127093
 Sum of electronic and zero-point Energies=          -2937.221454
 Sum of electronic and thermal Energies=             -2937.211889
 Sum of electronic and thermal Enthalpies=           -2937.210944
 Sum of electronic and thermal Free Energies=        -2937.259372

                     E (Thermal)             CV                S
                      KCal/Mol        Cal/Mol-Kelvin    Cal/Mol-Kelvin
 Total                  109.548             34.653            101.924
 Electronic               0.000              0.000              0.000
 Translational            0.889              2.981             41.769
 Rotational               0.889              2.981             31.541
 Vibrational            107.771             28.691             28.614
 Vibration     1          0.593              1.984              5.874
 Vibration     2          0.595              1.979              4.945
 Vibration     3          0.600              1.962              3.856
 Vibration     4          0.623              1.888              2.521
 Vibration     5          0.636              1.844              2.161
 Vibration     6          0.643              1.823              2.028
 Vibration     7          0.727              1.575              1.166
 Vibration     8          0.739              1.544              1.099
 Vibration     9          0.780              1.435              0.905
 Vibration    10          0.865              1.228              0.633
 Vibration    11          0.941              1.066              0.478

 Optimization completed.
    -- Stationary point found.
 Normal termination of Gaussian 16 at Wed Aug 14 18:48:48 2024.

 ----------------------------------------------------------------------
 # M062X/def2tzvp int=(grid=ultrafine) pop=nbo7 polar prop=efg volume g
 uess=read geom=check
 ----------------------------------------------------------------------

 ----------
 pyrd10.xyz
 ----------
 Structure from the checkpoint file:  "pyrd10_conf-6.chk"
 Charge =  0 Multiplicity = 1

 SCF Done:  E(RM062X) =  -2939.78836284     A.U. after   12 cycles

  Exact polarizability:     138.116      13.908     105.917       2.065      -4.873     104.700
 Approx polarizability:     152.299      18.327     140.385       3.334      -8.157     149.907

 Summary of Natural Population Analysis:

                                     Natural Population
             Natural    ---------------------------------------------
  Atom No    Charge        Core      Valence    Rydberg      Total
 --------------------------------------------------------------------
   Br  1   -0.03989     27.99997     7.02978    0.01015    35.03989
    C  2   -0.40310      1.99999     4.38420    0.01890     6.40310
    C  3   -0.41594      1.99999     4.40135    0.01460     6.41594
    C  4   -0.41901      1.99999     4.40623    0.01279     6.41901
    C  5   -0.06679      1.99999     4.04887    0.01793     6.06679
    C  6    0.03190      1.99999     3.94599    0.02211     5.96810
    N  7   -0.40647      1.99999     5.37477    0.03171     7.40647
    C  8    0.02327      1.99999     3.95447    0.02226     5.97673
    C  9   -0.25048      1.99999     4.23421    0.01628     6.25048
    C 10   -0.18193      1.99999     4.16500    0.01694     6.18193
    H 11    0.22310      0.00000     0.77496    0.00193     0.77690
    H 12    0.21263      0.00000     0.78533    0.00203     0.78737
    H 13    0.21794      0.00000     0.78023    0.00183     0.78206
    H 14    0.21450      0.00000     0.78350    0.00200     0.78550
    H 15    0.22667      0.00000     0.77181    0.00151     0.77333
    H 16    0.21033      0.00000     0.78778    0.00189     0.78967
    H 17    0.19049      0.00000     0.80789    0.00162     0.80951
    H 18    0.19631      0.00000     0.80229    0.00140     0.80369
    H 19    0.22225      0.00000     0.77662    0.00113     0.77775
    H 20    0.21420      0.00000     0.78424    0.00156     0.78580
 ====================================================================
 * Total *  0.00000     45.99990    53.79953    0.20057   100.00000

 Normal termination of Gaussian 16 at Wed Aug 14 18:53:12 2024.
 Gaussian 16:  ES64L-G16RevC.01  3-Jul-2019

 --------------------------------------------------------------------
 # M062X/def2tzvp int=(grid=ultrafine) nmr=giao guess=read geom=check
 --------------------------------------------------------------------

 ----------
 pyrd10.xyz
 ----------
 Structure from the checkpoint file:  "pyrd10_conf-6.chk"
 Charge =  0 Multiplicity = 1

                         Standard orientation:
 ---------------------------------------------------------------------
 Center     Atomic      Atomic             Coordinates (Angstroms)
 Number     Number       Type             X           Y           Z
 ---------------------------------------------------------------------
      1         35           0        2.975587   -0.449175   -0.187835
      2          6           0        1.217119    0.042513    0.569092
      3          6           0        0.696773    1.325646   -0.054747
      4          6           0       -0.670936    1.738531    0.532110
      5          6           0       -1.761181    0.731369    0.257339
      6          6           0       -2.382923    0.674255   -0.997419
      7          7           0       -3.325882   -0.209006   -1.337270
      8          6           0       -3.696625   -1.098679   -0.407317
      9          6           0       -3.153181   -1.136229    0.875974
     10          6           0       -2.171592   -0.205321    1.209351
     11          1           0        0.568453   -0.809555    0.372686
     12          1           0        1.380356    0.139220    1.642993
     13          1           0        1.421579    2.129207    0.109306
     14          1           0        0.607317    1.189248   -1.137384
     15          1           0       -0.947097    2.707621    0.102043
     16          1           0       -0.573454    1.891460    1.613387
     17          1           0       -2.100708    1.391058   -1.768370
     18          1           0       -4.464688   -1.810277   -0.702528
     19          1           0       -3.493018   -1.874433    1.594995
     20          1           0       -1.727837   -0.201891    2.201689
 ---------------------------------------------------------------------

 SCF Done:  E(RM062X) =  -2939.78836284     A.U. after    1 cycles

      1  Br   Isotropic =  2346.2879   Anisotropy =  1015.4451

      2  C    Isotropic =   140.8011   Anisotropy =    55.3300

      3  C    Isotropic =   144.9615   Anisotropy =    38.0289

      4  C    Isotropic =   148.8705   Anisotropy =    21.1192

      5  C    Isotropic =    27.0598   Anisotropy =   227.3651

      6  C    Isotropic =     9.7376   Anisotropy =   193.6980

      7  N    Isotropic =  -157.1935   Anisotropy =   686.4042

      8  C    Isotropic =    12.2797   Anisotropy =   205.6674

      9  C    Isotropic =    42.5817   Anisotropy =   202.4113

     10  C    Isotropic =    25.8405   Anisotropy =   214.0307

     11  H    Isotropic =    28.9751   Anisotropy =    13.9379

     12  H    Isotropic =    28.8071   Anisotropy =     9.2794

     13  H    Isotropic =    29.7001   Anisotropy =     6.0101

     14  H    Isotropic =    29.9478   Anisotropy =     5.7559

     15  H    Isotropic =    28.7626   Anisotropy =     8.1807

     16  H    Isotropic =    29.5396   Anisotropy =     6.4270

     17  H    Isotropic =    22.3253   Anisotropy =    10.6706

     18  H    Isotropic =    22.3968   Anisotropy =     7.0601

     19  H    Isotropic =    24.0023   Anisotropy =     6.8349

     20  H    Isotropic =    23.8422   Anisotropy =     9.2581

 The electronic state is 1-A.
 Alpha  occ. eigenvalues -- -485.36112 -63.34615 -57.16558 -57.16320 -57.16317
 Alpha  occ. eigenvalues --  -14.75541 -10.59965 -10.58199 -10.58116 -10.56832
 Alpha  occ. eigenvalues --  -10.56672 -10.56152 -10.55887 -10.55873  -9.01255
 Alpha  occ. eigenvalues --   -6.83655  -6.82784  -6.82775  -2.87021  -2.86711
 Alpha  occ. eigenvalues --   -2.86702  -2.85890  -2.85890  -1.05789  -0.94503
 Alpha  occ. eigenvalues --   -0.91056  -0.88208  -0.83995  -0.77113  -0.72601
 Alpha  occ. eigenvalues --   -0.71142  -0.67806  -0.60540  -0.57251  -0.56249
 Alpha  occ. eigenvalues --   -0.53410  -0.51470  -0.49860  -0.49014  -0.47707
 Alpha  occ. eigenvalues --   -0.47071  -0.45349  -0.42670  -0.41691  -0.40801
 Alpha  occ. eigenvalues --   -0.35308  -0.33780  -0.33638  -0.33013  -0.31553
 Alpha virt. eigenvalues --   -0.00720   0.00505   0.02777   0.06650   0.07771
 Alpha virt. eigenvalues --    0.08730   0.09117   0.11054   0.11488   0.12592
 Alpha virt. eigenvalues --    0.13579   0.14670   0.15324   0.15959   0.17249

 Mulliken charges:
               1
     1  Br  -0.154857
     2  C   -0.220444
     3  C   -0.265853
     4  C   -0.426354
     5  C    0.092321
     6  C   -0.082752
     7  N   -0.217114
     8  C   -0.056876
     9  C   -0.140245
    10  C   -0.165238
    11  H    0.182367
    12  H    0.166533
    13  H    0.159166
    14  H    0.171344
    15  H    0.176931
    16  H    0.177227
    17  H    0.151234
    18  H    0.145993
    19  H    0.144340
    20  H    0.162280
 Sum of Mulliken charges =  -0.00000

 Dipole moment (field-independent basis, Debye):
    X=             -0.9168    Y=              0.8875    Z=              2.6410  Tot=              2.9331
 Quadrupole moment (field-independent basis, Debye-Ang):
   XX=            -84.1105   YY=            -69.2875   ZZ=            -73.0901
   XY=              4.7936   XZ=             -5.5401   YZ=             -1.9584

 Normal termination of Gaussian 16 at Wed Aug 14 18:54:43 2024.
