 Gaussian 16, Revision C.01,

 ----------------------------------------------------------------------
 # B3LYP/6-31G(d,p) symmetry=loose empiricaldispersion=GD3BJ int=(grid=
 ultrafine) opt freq=noraman
 ----------------------------------------------------------------------

 ----------
 pyrd10.xyz
 ----------
 Symbolic Z-matrix:
 Charge =  0 Multiplicity = 1

 SCF Done:  E(RB3LYP) =  -2937.38342920     A.U. after   14 cycles
 SCF Done:  E(RB3LYP) =  -2937.38565928     A.U. after   12 cycles
 SCF Done:  E(RB3LYP) =  -2937.38475207     A.U. after   14 cycles
 SCF Done:  E(RB3LYP) =  -2937.38604990     A.U. after   11 cycles
 SCF Done:  E(RB3LYP) =  -2937.38618853     A.U. after   12 cycles
 SCF Done:  E(RB3LYP) =  -2937.38621488     A.U. after   10 cycles
 SCF Done:  E(RB3LYP) =  -2937.38621968     A.U. after    9 cycles
 SCF Done:  E(RB3LYP) =  -2937.38622083     A.U. after    9 cycles
 SCF Done:  E(RB3LYP) =  -2937.38622113     A.U. after    7 cycles
 SCF Done:  E(RB3LYP) =  -2937.38622118     A.U. after    7 cycles
 Optimization completed.
    -- Stationary point found.
 Normal termination of Gaussian 16 at Wed Aug 14 18:43:04 2024.

 ----------------------------------------------------------------------
 #N Geom=AllCheck Guess=TCheck SCRF=Check GenChk RB3LYP/6-31G(d,p) Freq
 ----------------------------------------------------------------------

 Structure from the checkpoint file:  "pyrd10_conf-13.chk"
 ----------
 pyrd10.xyz
 ----------
 Charge =  0 Multiplicity = 1

 SCF Done:  E(RB3LYP) =  -2937.38622118     A.U. after    1 cycles

                      1                      2                      3
                      A                      A                      A
 Frequencies --     36.8895                60.2609                63.2989
 Red. masses --      4.4821                 3.7507                 5.3671
 Frc consts  --      0.0036                 0.0080                 0.0127
 IR Inten    --      0.7204                 0.7180                 0.5718

                      4                      5                      6
                      A                      A                      A
 Frequencies --    137.8847               245.8804               265.4294
 Red. masses --      5.7793                 2.9063                 3.0091
 Frc consts  --      0.0647                 0.1035                 0.1249
 IR Inten    --      1.0653                 1.3100                 1.8905

                      7                      8                      9
                      A                      A                      A
 Frequencies --    354.4464               404.7314               418.9312
 Red. masses --      1.9905                 2.4970                 3.1352
 Frc consts  --      0.1473                 0.2410                 0.3242
 IR Inten    --      0.0607                 2.1194                 1.0096

                     10                     11                     12
                      A                      A                      A
 Frequencies --    503.0119               551.5252               588.4493
 Red. masses --      4.1883                 3.1101                 3.9760
 Frc consts  --      0.6244                 0.5574                 0.8112
 IR Inten    --      0.0473                10.1403                 3.6607

                     13                     14                     15
                      A                      A                      A
 Frequencies --    643.7295               731.5049               785.8603
 Red. masses --      7.1636                 1.9909                 3.5701
 Frc consts  --      1.7490                 0.6277                 1.2991
 IR Inten    --      3.2572                19.8505                 1.6726

                     16                     17                     18
                      A                      A                      A
 Frequencies --    810.6591               833.1916               881.0845
 Red. masses --      1.5657                 1.6381                 2.2282
 Frc consts  --      0.6062                 0.6700                 1.0192
 IR Inten    --     13.4048                 1.7421                 4.3400

                     19                     20                     21
                      A                      A                      A
 Frequencies --    934.7125               945.7116               973.3161
 Red. masses --      1.6433                 1.4011                 1.6942
 Frc consts  --      0.8459                 0.7383                 0.9456
 IR Inten    --      7.7571                 1.1630                 2.4253

                     22                     23                     24
                      A                      A                      A
 Frequencies --    993.8826              1017.7185              1044.3694
 Red. masses --      1.3700                 1.7381                 3.9359
 Frc consts  --      0.7974                 1.0607                 2.5293
 IR Inten    --      0.1575                 4.1796                10.7404

                     25                     26                     27
                      A                      A                      A
 Frequencies --   1064.9729              1079.1499              1127.5402
 Red. masses --      2.5856                 2.3335                 1.2372
 Frc consts  --      1.7278                 1.6011                 0.9267
 IR Inten    --      0.6248                 0.2955                 4.4053

                     28                     29                     30
                      A                      A                      A
 Frequencies --   1158.2758              1217.2531              1230.1622
 Red. masses --      1.2562                 1.3115                 1.5162
 Frc consts  --      0.9930                 1.1449                 1.3519
 IR Inten    --      4.3942                 6.2495                 2.6730

                     31                     32                     33
                      A                      A                      A
 Frequencies --   1251.0052              1266.7383              1303.3421
 Red. masses --      1.7591                 1.3398                 1.2178
 Frc consts  --      1.6220                 1.2667                 1.2188
 IR Inten    --      0.6787                 4.5003                30.4224

                     34                     35                     36
                      A                      A                      A
 Frequencies --   1318.4002              1372.1371              1385.6619
 Red. masses --      4.3766                 1.3426                 1.3885
 Frc consts  --      4.4821                 1.4893                 1.5707
 IR Inten    --      0.0555                 1.1532                 2.4068

                     37                     38                     39
                      A                      A                      A
 Frequencies --   1394.0849              1471.9982              1484.9095
 Red. masses --      1.3845                 2.2986                 1.0824
 Frc consts  --      1.5853                 2.9344                 1.4062
 IR Inten    --      3.2654                19.8174                 8.1291

                     40                     41                     42
                      A                      A                      A
 Frequencies --   1489.3056              1504.0751              1524.7091
 Red. masses --      1.1095                 1.1049                 2.2817
 Frc consts  --      1.4499                 1.4727                 3.1252
 IR Inten    --      4.9360                 3.7228                10.7634

                     43                     44                     45
                      A                      A                      A
 Frequencies --   1632.8723              1653.5662              3029.0878
 Red. masses --      5.3065                 5.8729                 1.0664
 Frc consts  --      8.3361                 9.4612                 5.7650
 IR Inten    --     12.5244                 2.7570                18.0988

                     46                     47                     48
                      A                      A                      A
 Frequencies --   3040.9198              3077.1692              3095.1381
 Red. masses --      1.0611                 1.1026                 1.0891
 Frc consts  --      5.7811                 6.1515                 6.1469
 IR Inten    --     41.7515                11.8463                 5.5520

                     49                     50                     51
                      A                      A                      A
 Frequencies --   3108.6180              3142.5637              3167.0227
 Red. masses --      1.0663                 1.0895                 1.0890
 Frc consts  --      6.0712                 6.3396                 6.4354
 IR Inten    --     27.8019                29.9516                14.9797

                     52                     53                     54
                      A                      A                      A
 Frequencies --   3173.3811              3177.2395              3207.4589
 Red. masses --      1.1098                 1.0906                 1.0964
 Frc consts  --      6.5847                 6.4865                 6.6457
 IR Inten    --      7.8475                17.6317                18.5765

 - Thermochemistry -
 -------------------
 Temperature   298.150 Kelvin.  Pressure   1.00000 Atm.
 Atom     1 has atomic number 35 and mass  78.91834

 Molecular mass:   198.99966 amu.
 Principal axes and moments of inertia in atomic units:
                                 1                 2                 3
     Eigenvalues --         1300.750828       2458.345620       3080.792095
           X                   0.995473         -0.094922          0.004901
           Y                   0.094999          0.995290         -0.019305
           Z                  -0.003046          0.019683          0.999802
 This molecule is an asymmetric top.
 Rotational symmetry number  1.
 Warning -- assumption of classical behavior for rotation
           may cause significant error
 Rotational temperatures (Kelvin)      0.06659     0.03523     0.02811
 Rotational constants (GHZ):           1.38746     0.73413     0.58580
 Zero-point vibrational energy     432900.1 (Joules/Mol)
                                  103.46560 (Kcal/Mol)
 Warning -- explicit consideration of  12 degrees of freedom as
           vibrations may cause significant error
 Vibrational temperatures:     53.08    86.70    91.07   198.39   353.77
          (Kelvin)            381.89   509.97   582.32   602.75   723.72
                              793.52   846.65   926.18  1052.47  1130.68
                             1166.36  1198.78  1267.68  1344.84  1360.67
                             1400.38  1429.98  1464.27  1502.61  1532.26
                             1552.66  1622.28  1666.50  1751.36  1769.93
                             1799.92  1822.55  1875.22  1896.88  1974.20
                             1993.66  2005.78  2117.88  2136.45  2142.78
                             2164.03  2193.72  2349.34  2379.11  4358.18
                             4375.21  4427.36  4453.21  4472.61  4521.45
                             4556.64  4565.79  4571.34  4614.82

 Zero-point correction=                           0.164883 (Hartree/Particle)
 Thermal correction to Energy=                    0.174341
 Thermal correction to Enthalpy=                  0.175286
 Thermal correction to Gibbs Free Energy=         0.127727
 Sum of electronic and zero-point Energies=          -2937.221338
 Sum of electronic and thermal Energies=             -2937.211880
 Sum of electronic and thermal Enthalpies=           -2937.210936
 Sum of electronic and thermal Free Energies=        -2937.258494

                     E (Thermal)             CV                S
                      KCal/Mol        Cal/Mol-Kelvin    Cal/Mol-Kelvin
 Total                  109.401             34.633            100.095
 Electronic               0.000              0.000              0.000
 Translational            0.889              2.981             41.769
 Rotational               0.889              2.981             30.667
 Vibrational            107.623             28.671             27.660
 Vibration     1          0.594              1.982              5.419
 Vibration     2          0.597              1.973              4.449
 Vibration     3          0.597              1.972              4.352
 Vibration     4          0.614              1.915              2.833
 Vibration     5          0.660              1.770              1.760
 Vibration     6          0.671              1.736              1.626
 Vibration     7          0.730              1.566              1.146
 Vibration     8          0.770              1.460              0.945
 Vibration     9          0.782              1.429              0.896
 Vibration    10          0.858              1.243              0.651
 Vibration    11          0.907              1.136              0.541
 Vibration    12          0.946              1.056              0.470

 Optimization completed.
    -- Stationary point found.
 Normal termination of Gaussian 16 at Wed Aug 14 18:44:17 2024.

 ----------------------------------------------------------------------
 # M062X/def2tzvp int=(grid=ultrafine) pop=nbo7 polar prop=efg volume g
 uess=read geom=check
 ----------------------------------------------------------------------

 ----------
 pyrd10.xyz
 ----------
 Structure from the checkpoint file:  "pyrd10_conf-13.chk"
 Charge =  0 Multiplicity = 1

 SCF Done:  E(RM062X) =  -2939.78528301     A.U. after   12 cycles

  Exact polarizability:     115.296     -21.991     118.465      -1.419      -2.097     104.895
 Approx polarizability:     135.118     -30.774     156.822      -4.143      -1.696     153.606

 Summary of Natural Population Analysis:

                                     Natural Population
             Natural    ---------------------------------------------
  Atom No    Charge        Core      Valence    Rydberg      Total
 --------------------------------------------------------------------
   Br  1   -0.04077     27.99996     7.02970    0.01111    35.04077
    C  2   -0.40475      1.99999     4.38550    0.01926     6.40475
    C  3   -0.41765      1.99999     4.40443    0.01323     6.41765
    C  4   -0.41881      1.99999     4.40552    0.01329     6.41881
    C  5   -0.06088      1.99999     4.04209    0.01880     6.06088
    C  6    0.03665      1.99999     3.94084    0.02252     5.96335
    N  7   -0.40940      1.99999     5.37754    0.03186     7.40940
    C  8    0.02239      1.99999     3.95502    0.02260     5.97761
    C  9   -0.24885      1.99999     4.23233    0.01653     6.24885
    C 10   -0.17453      1.99999     4.15684    0.01769     6.17453
    H 11    0.22419      0.00000     0.77426    0.00155     0.77581
    H 12    0.21239      0.00000     0.78550    0.00211     0.78761
    H 13    0.21749      0.00000     0.78040    0.00211     0.78251
    H 14    0.21802      0.00000     0.78052    0.00146     0.78198
    H 15    0.20726      0.00000     0.79084    0.00190     0.79274
    H 16    0.22345      0.00000     0.77499    0.00156     0.77655
    H 17    0.18739      0.00000     0.81094    0.00167     0.81261
    H 18    0.19454      0.00000     0.80405    0.00142     0.80546
    H 19    0.22049      0.00000     0.77837    0.00114     0.77951
    H 20    0.21138      0.00000     0.78705    0.00157     0.78862
 ====================================================================
 * Total *  0.00000     45.99989    53.79673    0.20338   100.00000

 Normal termination of Gaussian 16 at Wed Aug 14 18:48:32 2024.
 Gaussian 16:  ES64L-G16RevC.01  3-Jul-2019

 --------------------------------------------------------------------
 # M062X/def2tzvp int=(grid=ultrafine) nmr=giao guess=read geom=check
 --------------------------------------------------------------------

 ----------
 pyrd10.xyz
 ----------
 Structure from the checkpoint file:  "pyrd10_conf-13.chk"
 Charge =  0 Multiplicity = 1

                         Standard orientation:
 ---------------------------------------------------------------------
 Center     Atomic      Atomic             Coordinates (Angstroms)
 Number     Number       Type             X           Y           Z
 ---------------------------------------------------------------------
      1         35           0       -1.450286   -1.114632   -0.099180
      2          6           0       -2.106145    0.688267    0.398287
      3          6           0       -1.398088    1.808075   -0.352060
      4          6           0       -0.007939    2.193429    0.191160
      5          6           0        1.015863    1.086750    0.132090
      6          6           0        1.563435    0.681977   -1.091711
      7          7           0        2.425673   -0.325909   -1.237833
      8          6           0        2.786441   -0.988442   -0.130645
      9          6           0        2.323841   -0.661782    1.142500
     10          6           0        1.424779    0.393506    1.271390
     11          1           0       -3.169500    0.659048    0.166537
     12          1           0       -1.971991    0.758267    1.478464
     13          1           0       -1.333039    1.544536   -1.412606
     14          1           0       -2.043678    2.694650   -0.287673
     15          1           0       -0.115359    2.532594    1.228449
     16          1           0        0.348653    3.057026   -0.382543
     17          1           0        1.281238    1.204652   -2.005576
     18          1           0        3.483657   -1.812012   -0.269809
     19          1           0        2.655117   -1.225643    2.008354
     20          1           0        1.032103    0.669690    2.246481
 ---------------------------------------------------------------------

 SCF Done:  E(RM062X) =  -2939.78528301     A.U. after    1 cycles

      1  Br   Isotropic =  2268.9866   Anisotropy =   930.8413

      2  C    Isotropic =   140.3436   Anisotropy =    36.5044

      3  C    Isotropic =   148.0967   Anisotropy =     7.4605

      4  C    Isotropic =   147.4085   Anisotropy =    15.8585

      5  C    Isotropic =    27.0522   Anisotropy =   229.5458

      6  C    Isotropic =     9.5352   Anisotropy =   198.2295

      7  N    Isotropic =  -153.2876   Anisotropy =   682.0980

      8  C    Isotropic =    12.7929   Anisotropy =   205.5393

      9  C    Isotropic =    41.7467   Anisotropy =   205.1081

     10  C    Isotropic =    25.0846   Anisotropy =   215.1310

     11  H    Isotropic =    28.3664   Anisotropy =    12.0360

     12  H    Isotropic =    28.8571   Anisotropy =     9.3933

     13  H    Isotropic =    29.8154   Anisotropy =     6.6769

     14  H    Isotropic =    29.6668   Anisotropy =     9.7991

     15  H    Isotropic =    29.4391   Anisotropy =     7.0793

     16  H    Isotropic =    28.5995   Anisotropy =     8.3433

     17  H    Isotropic =    22.3425   Anisotropy =    10.0672

     18  H    Isotropic =    22.4252   Anisotropy =     6.6667

     19  H    Isotropic =    24.0348   Anisotropy =     6.2812

     20  H    Isotropic =    23.7299   Anisotropy =     8.1887

 The electronic state is 1-A.
 Alpha  occ. eigenvalues -- -485.35712 -63.34203 -57.16149 -57.15910 -57.15903
 Alpha  occ. eigenvalues --  -14.74565 -10.60055 -10.57188 -10.57155 -10.56043
 Alpha  occ. eigenvalues --  -10.55723 -10.55653 -10.55612 -10.54833  -9.00831
 Alpha  occ. eigenvalues --   -6.83237  -6.82363  -6.82339  -2.86603  -2.86297
 Alpha  occ. eigenvalues --   -2.86274  -2.85457  -2.85457  -1.04827  -0.94015
 Alpha  occ. eigenvalues --   -0.90257  -0.87323  -0.83669  -0.77177  -0.71644
 Alpha  occ. eigenvalues --   -0.70430  -0.67077  -0.59647  -0.56419  -0.54967
 Alpha  occ. eigenvalues --   -0.54141  -0.51543  -0.49331  -0.47355  -0.47029
 Alpha  occ. eigenvalues --   -0.46590  -0.44087  -0.43558  -0.41357  -0.39932
 Alpha  occ. eigenvalues --   -0.35060  -0.33699  -0.32550  -0.32078  -0.30025
 Alpha virt. eigenvalues --    0.00406   0.01339   0.02918   0.06008   0.07901
 Alpha virt. eigenvalues --    0.09287   0.10000   0.11225   0.11857   0.13085
 Alpha virt. eigenvalues --    0.13943   0.14428   0.15471   0.15782   0.17279

 Mulliken charges:
               1
     1  Br  -0.131929
     2  C   -0.237315
     3  C   -0.263595
     4  C   -0.413746
     5  C    0.123871
     6  C   -0.096955
     7  N   -0.212452
     8  C   -0.063885
     9  C   -0.131074
    10  C   -0.159748
    11  H    0.177059
    12  H    0.166145
    13  H    0.175087
    14  H    0.148755
    15  H    0.170238
    16  H    0.173136
    17  H    0.144911
    18  H    0.142069
    19  H    0.138984
    20  H    0.150441
 Sum of Mulliken charges =  -0.00000

 Dipole moment (field-independent basis, Debye):
    X=             -1.5947    Y=              2.6374    Z=              2.2547  Tot=              3.8187
 Quadrupole moment (field-independent basis, Debye-Ang):
   XX=            -74.1960   YY=            -69.3713   ZZ=            -72.3421
   XY=             -6.6525   XZ=              4.3136   YZ=             -1.9409

 Normal termination of Gaussian 16 at Wed Aug 14 18:50:09 2024.
