 Gaussian 16, Revision C.01,

 ----------------------------------------------------------------------
 # B3LYP/6-31G(d,p) symmetry=loose empiricaldispersion=GD3BJ int=(grid=
 ultrafine) opt freq=noraman
 ----------------------------------------------------------------------

 ---------
 pyrd5.xyz
 ---------
 Symbolic Z-matrix:
 Charge =  0 Multiplicity = 1

 SCF Done:  E(RB3LYP) =  -1084.27243831     A.U. after   14 cycles
 SCF Done:  E(RB3LYP) =  -1084.27664068     A.U. after   12 cycles
 SCF Done:  E(RB3LYP) =  -1084.27695682     A.U. after   11 cycles
 SCF Done:  E(RB3LYP) =  -1084.27699614     A.U. after   11 cycles
 SCF Done:  E(RB3LYP) =  -1084.27700500     A.U. after    9 cycles
 SCF Done:  E(RB3LYP) =  -1084.27700971     A.U. after    9 cycles
 SCF Done:  E(RB3LYP) =  -1084.27701361     A.U. after    9 cycles
 SCF Done:  E(RB3LYP) =  -1084.27701984     A.U. after    9 cycles
 SCF Done:  E(RB3LYP) =  -1084.27703989     A.U. after   10 cycles
 SCF Done:  E(RB3LYP) =  -1084.27705262     A.U. after   10 cycles
 SCF Done:  E(RB3LYP) =  -1084.27706331     A.U. after   10 cycles
 SCF Done:  E(RB3LYP) =  -1084.27706984     A.U. after    9 cycles
 SCF Done:  E(RB3LYP) =  -1084.27707041     A.U. after    8 cycles
 SCF Done:  E(RB3LYP) =  -1084.27707071     A.U. after    8 cycles
 SCF Done:  E(RB3LYP) =  -1084.27707074     A.U. after    7 cycles
 Optimization completed.
    -- Stationary point found.
 Normal termination of Gaussian 16 at Wed Aug 14 19:07:04 2024.

 ----------------------------------------------------------------------
 #N Geom=AllCheck Guess=TCheck SCRF=Check GenChk RB3LYP/6-31G(d,p) Freq
 ----------------------------------------------------------------------

 Structure from the checkpoint file:  "pyrd5_conf-1.chk"
 ---------
 pyrd5.xyz
 ---------
 Charge =  0 Multiplicity = 1

 SCF Done:  E(RB3LYP) =  -1084.27707074     A.U. after    1 cycles

                      1                      2                      3
                      A                      A                      A
 Frequencies --     24.1665                37.7226               108.9145
 Red. masses --     13.2171                 1.0277                 8.3763
 Frc consts  --      0.0045                 0.0009                 0.0585
 IR Inten    --      0.2057                 0.2405                 0.0110

                      4                      5                      6
                      A                      A                      A
 Frequencies --    144.1104               174.1087               218.6247
 Red. masses --     13.5577                 4.7831                 3.9855
 Frc consts  --      0.1659                 0.0854                 0.1122
 IR Inten    --      0.4281                 0.0046                 0.1938

                      7                      8                      9
                      A                      A                      A
 Frequencies --    226.2947               322.9149               323.3338
 Red. masses --      4.3358                 9.1726                10.3260
 Frc consts  --      0.1308                 0.5635                 0.6360
 IR Inten    --      0.6629                 1.0078                 1.0398

                     10                     11                     12
                      A                      A                      A
 Frequencies --    338.9952               427.7263               469.6737
 Red. masses --     10.2547                 6.1578                 8.0737
 Frc consts  --      0.6943                 0.6638                 1.0493
 IR Inten    --      1.8186                 5.8771                 3.7422

                     13                     14                     15
                      A                      A                      A
 Frequencies --    509.9767               526.7911               558.5149
 Red. masses --     11.7864                 5.5509                 3.9742
 Frc consts  --      1.8061                 0.9076                 0.7304
 IR Inten    --      4.1849                 4.8176                 3.5365

                     16                     17                     18
                      A                      A                      A
 Frequencies --    592.8669               662.9769               709.1349
 Red. masses --     10.1739                 6.2312                13.9111
 Frc consts  --      2.1069                 1.6137                 4.1216
 IR Inten    --      0.2444                 0.0608                37.6460

                     19                     20                     21
                      A                      A                      A
 Frequencies --    766.3290               850.7843               881.1245
 Red. masses --      4.2124                10.4270                 1.3541
 Frc consts  --      1.4575                 4.4468                 0.6194
 IR Inten    --      0.0003                71.0830                22.3107

                     22                     23                     24
                      A                      A                      A
 Frequencies --    927.1475               928.1571              1009.9110
 Red. masses --      1.3650                 6.1894                 4.9868
 Frc consts  --      0.6913                 3.1416                 2.9967
 IR Inten    --      2.4407                42.4262                 4.9175

                     25                     26                     27
                      A                      A                      A
 Frequencies --   1029.2887              1066.4675              1125.8159
 Red. masses --      1.5649                 1.5637                 2.0673
 Frc consts  --      0.9768                 1.0479                 1.5438
 IR Inten    --      7.9075                 5.3929                23.3729

                     28                     29                     30
                      A                      A                      A
 Frequencies --   1187.9139              1217.4578              1224.7340
 Red. masses --      2.1603                12.9283                 5.5510
 Frc consts  --      1.7961                11.2901                 4.9057
 IR Inten    --     74.1878               250.3235               220.3700

                     31                     32                     33
                      A                      A                      A
 Frequencies --   1241.6472              1322.4692              1357.0023
 Red. masses --      2.8287                 7.7504                 3.4588
 Frc consts  --      2.5694                 7.9863                 3.7527
 IR Inten    --     93.4172                42.1996               216.8038

                     34                     35                     36
                      A                      A                      A
 Frequencies --   1425.5006              1460.9074              1479.4431
 Red. masses --      1.2516                 3.9801                 4.4364
 Frc consts  --      1.4984                 5.0049                 5.7211
 IR Inten    --      0.1592                53.6366                29.4370

                     37                     38                     39
                      A                      A                      A
 Frequencies --   1496.0719              1502.2207              1617.7446
 Red. masses --      1.0430                 1.1492                 7.0871
 Frc consts  --      1.3755                 1.5279                10.9279
 IR Inten    --      6.9314                33.6658                70.6222

                     40                     41                     42
                      A                      A                      A
 Frequencies --   1655.1740              3051.7556              3112.1556
 Red. masses --      6.2542                 1.0371                 1.1009
 Frc consts  --     10.0951                 5.6906                 6.2823
 IR Inten    --     69.3326                11.4367                 9.2003

                     43                     44                     45
                      A                      A                      A
 Frequencies --   3142.8123              3224.8686              3231.8894
 Red. masses --      1.1023                 1.0928                 1.0920
 Frc consts  --      6.4148                 6.6958                 6.7203
 IR Inten    --     11.6234                 0.9291                 0.2159

 - Thermochemistry -
 -------------------
 Temperature   298.150 Kelvin.  Pressure   1.00000 Atm.
 Atom     1 has atomic number 17 and mass  34.96885

 Molecular mass:   195.00626 amu.
 Principal axes and moments of inertia in atomic units:
                                 1                 2                 3
     Eigenvalues --         1713.676727       3110.739567       4492.969853
           X                   0.998661         -0.051741          0.000002
           Y                   0.051741          0.998661          0.000001
           Z                  -0.000002         -0.000001          1.000000
 This molecule is an asymmetric top.
 Rotational symmetry number  1.
 Warning -- assumption of classical behavior for rotation
           may cause significant error
 Rotational temperatures (Kelvin)      0.05054     0.02784     0.01928
 Rotational constants (GHZ):           1.05314     0.58016     0.40168
 Zero-point vibrational energy     292568.5 (Joules/Mol)
                                   69.92556 (Kcal/Mol)
 Warning -- explicit consideration of  16 degrees of freedom as
           vibrations may cause significant error
 Vibrational temperatures:     34.77    54.27   156.70   207.34   250.50
          (Kelvin)            314.55   325.59   464.60   465.21   487.74
                              615.40   675.76   733.74   757.93   803.58
                              853.00   953.88  1020.29  1102.58  1224.09
                             1267.74  1333.96  1335.41  1453.04  1480.92
                             1534.41  1619.80  1709.14  1751.65  1762.12
                             1786.45  1902.74  1952.42  2050.98  2101.92
                             2128.59  2152.51  2161.36  2327.57  2381.43
                             4390.80  4477.70  4521.81  4639.87  4649.97

 Zero-point correction=                           0.111433 (Hartree/Particle)
 Thermal correction to Energy=                    0.122283
 Thermal correction to Enthalpy=                  0.123227
 Thermal correction to Gibbs Free Energy=         0.072454
 Sum of electronic and zero-point Energies=          -1084.165637
 Sum of electronic and thermal Energies=             -1084.154788
 Sum of electronic and thermal Enthalpies=           -1084.153844
 Sum of electronic and thermal Free Energies=        -1084.204617

                     E (Thermal)             CV                S
                      KCal/Mol        Cal/Mol-Kelvin    Cal/Mol-Kelvin
 Total                   76.734             38.705            106.861
 Electronic               0.000              0.000              0.000
 Translational            0.889              2.981             41.709
 Rotational               0.889              2.981             31.549
 Vibrational             74.956             32.743             33.603
 Vibration     1          0.593              1.985              6.259
 Vibration     2          0.594              1.982              5.375
 Vibration     3          0.606              1.942              3.288
 Vibration     4          0.616              1.909              2.749
 Vibration     5          0.627              1.874              2.391
 Vibration     6          0.646              1.813              1.970
 Vibration     7          0.650              1.801              1.908
 Vibration     8          0.708              1.630              1.295
 Vibration     9          0.708              1.629              1.293
 Vibration    10          0.719              1.598              1.217
 Vibration    11          0.789              1.410              0.866
 Vibration    12          0.827              1.317              0.738
 Vibration    13          0.865              1.228              0.634
 Vibration    14          0.882              1.191              0.594
 Vibration    15          0.914              1.121              0.527
 Vibration    16          0.950              1.047              0.462

                           ! Non-Optimized Parameters !
 Normal termination of Gaussian 16 at Wed Aug 14 19:08:06 2024.

 ----------------------------------------------------------------------
 # M062X/def2tzvp int=(grid=ultrafine) pop=nbo7 polar prop=efg volume g
 uess=read geom=check
 ----------------------------------------------------------------------

 ---------
 pyrd5.xyz
 ---------
 Structure from the checkpoint file:  "pyrd5_conf-1.chk"
 Charge =  0 Multiplicity = 1

 SCF Done:  E(RM062X) =  -1084.27377848     A.U. after   12 cycles

  Exact polarizability:     116.400       7.316     121.160       0.004      -0.001      62.817
 Approx polarizability:     143.342      10.393     149.178       0.007      -0.002      86.404

 Summary of Natural Population Analysis:

                                     Natural Population
             Natural    ---------------------------------------------
  Atom No    Charge        Core      Valence    Rydberg      Total
 --------------------------------------------------------------------
   Cl  1    0.00765      9.99998     6.97622    0.01616    16.99235
    C  2    0.20832      1.99999     3.76101    0.03069     5.79168
    N  3   -0.40588      1.99999     5.37169    0.03420     7.40588
    C  4    0.10520      1.99999     3.87220    0.02261     5.89480
    C  5    0.96718      1.99999     2.98516    0.04767     5.03282
    F  6   -0.32943      2.00000     7.31960    0.00983     9.32943
    F  7   -0.31444      2.00000     7.30419    0.01025     9.31444
    F  8   -0.31453      2.00000     7.30428    0.01025     9.31453
    C  9   -0.23877      1.99999     4.22327    0.01551     6.23877
    C 10    0.04331      1.99999     3.94197    0.01473     5.95669
    C 11   -0.63613      1.99999     4.62654    0.00959     6.63613
    C 12   -0.25850      1.99999     4.24084    0.01767     6.25850
    H 13    0.24120      0.00000     0.75761    0.00119     0.75880
    H 14    0.22317      0.00000     0.77577    0.00106     0.77683
    H 15    0.23268      0.00000     0.76619    0.00113     0.76732
    H 16    0.23268      0.00000     0.76619    0.00113     0.76732
    H 17    0.23630      0.00000     0.76237    0.00133     0.76370
 ====================================================================
 * Total *  0.00000     31.99991    65.75508    0.24501    98.00000

 Normal termination of Gaussian 16 at Wed Aug 14 19:12:23 2024.
 Gaussian 16:  ES64L-G16RevC.01  3-Jul-2019

 --------------------------------------------------------------------
 # M062X/def2tzvp int=(grid=ultrafine) nmr=giao guess=read geom=check
 --------------------------------------------------------------------

 ---------
 pyrd5.xyz
 ---------
 Structure from the checkpoint file:  "pyrd5_conf-1.chk"
 Charge =  0 Multiplicity = 1

                         Standard orientation:
 ---------------------------------------------------------------------
 Center     Atomic      Atomic             Coordinates (Angstroms)
 Number     Number       Type             X           Y           Z
 ---------------------------------------------------------------------
      1         17           0       -2.622297   -1.932420   -0.000010
      2          6           0       -1.473434   -0.602098    0.000036
      3          7           0       -0.196537   -0.920271    0.000243
      4          6           0        0.674722    0.098911    0.000305
      5          6           0        2.130540   -0.318806    0.000043
      6          9           0        2.948024    0.759350    0.002237
      7          9           0        2.426480   -1.056639    1.085010
      8          9           0        2.427072   -1.052554   -1.087669
      9          6           0        0.307568    1.435573    0.000153
     10          6           0       -1.059163    1.759044   -0.000035
     11          6           0       -1.512835    3.193879   -0.000014
     12          6           0       -1.970453    0.706131   -0.000115
     13          1           0        1.064692    2.209827    0.000214
     14          1           0       -2.602145    3.270059    0.000029
     15          1           0       -1.132336    3.720464    0.881395
     16          1           0       -1.132314    3.720587   -0.881318
     17          1           0       -3.038935    0.884875   -0.000299
 ---------------------------------------------------------------------

 SCF Done:  E(RM062X) =  -1084.27377848     A.U. after    1 cycles

      1  Cl   Isotropic =   583.0176   Anisotropy =   634.8242

      2  C    Isotropic =     2.3581   Anisotropy =   127.8782

      3  N    Isotropic =  -119.6215   Anisotropy =   565.9461

      4  C    Isotropic =    12.1814   Anisotropy =   174.2788

      5  C    Isotropic =    53.7068   Anisotropy =    15.8159

      6  F    Isotropic =   259.6377   Anisotropy =   134.7406

      7  F    Isotropic =   241.5057   Anisotropy =   142.1641

      8  F    Isotropic =   241.3821   Anisotropy =   142.2902

      9  C    Isotropic =    45.1659   Anisotropy =   194.6061

     10  C    Isotropic =     7.1887   Anisotropy =   252.3535

     11  C    Isotropic =   163.0518   Anisotropy =    40.6370

     12  C    Isotropic =    37.0728   Anisotropy =   159.0691

     13  H    Isotropic =    23.6864   Anisotropy =    11.6808

     14  H    Isotropic =    29.6481   Anisotropy =     7.6340

     15  H    Isotropic =    29.3087   Anisotropy =     8.0841

     16  H    Isotropic =    29.3087   Anisotropy =     8.0840

     17  H    Isotropic =    23.9631   Anisotropy =    10.5506

 The electronic state is 1-A.
 Alpha  occ. eigenvalues -- -102.65576 -25.28611 -25.28002 -25.28000 -14.78496
 Alpha  occ. eigenvalues --  -10.80450 -10.66069 -10.62393 -10.60265 -10.58316
 Alpha  occ. eigenvalues --  -10.58133 -10.56629  -9.81840  -7.54034  -7.53527
 Alpha  occ. eigenvalues --   -7.53495  -1.46438  -1.37637  -1.37284  -1.10517
 Alpha  occ. eigenvalues --   -0.97264  -0.95687  -0.89233  -0.83643  -0.82256
 Alpha  occ. eigenvalues --   -0.75213  -0.71715  -0.69237  -0.68666  -0.66275
 Alpha  occ. eigenvalues --   -0.60572  -0.59904  -0.57707  -0.57198  -0.54368
 Alpha  occ. eigenvalues --   -0.54217  -0.53121  -0.52867  -0.51657  -0.50215
 Alpha  occ. eigenvalues --   -0.50079  -0.49219  -0.48162  -0.44797  -0.41900
 Alpha  occ. eigenvalues --   -0.39191  -0.36894  -0.36446  -0.33403
 Alpha virt. eigenvalues --   -0.03023  -0.02038   0.05562   0.06193   0.09996
 Alpha virt. eigenvalues --    0.10494   0.11306   0.11690   0.14101   0.15309
 Alpha virt. eigenvalues --    0.15669   0.16769   0.17504   0.19286   0.20651

 Mulliken charges:
               1
     1  Cl  -0.065372
     2  C    0.136943
     3  N   -0.200258
     4  C    0.042741
     5  C    0.516691
     6  F   -0.184845
     7  F   -0.167203
     8  F   -0.167295
     9  C   -0.180636
    10  C    0.120366
    11  C   -0.474645
    12  C   -0.211634
    13  H    0.179863
    14  H    0.150040
    15  H    0.170374
    16  H    0.170375
    17  H    0.164494
 Sum of Mulliken charges =  -0.00000

 Dipole moment (field-independent basis, Debye):
    X=             -2.3859    Y=              4.6069    Z=              0.0006  Tot=              5.1880
 Quadrupole moment (field-independent basis, Debye-Ang):
   XX=            -75.3832   YY=            -69.4400   ZZ=            -75.6682
   XY=             -2.9045   XZ=              0.0019   YZ=             -0.0003

 Normal termination of Gaussian 16 at Wed Aug 14 19:14:00 2024.
