 Gaussian 16, Revision C.01,

 ----------------------------------------------------------------------
 # B3LYP/6-31G(d,p) symmetry=loose empiricaldispersion=GD3BJ int=(grid=
 ultrafine) opt freq=noraman
 ----------------------------------------------------------------------

 ----------
 pyrd13.xyz
 ----------
 Symbolic Z-matrix:
 Charge =  0 Multiplicity = 1

 SCF Done:  E(RB3LYP) =  -533.765531749     A.U. after   15 cycles
 SCF Done:  E(RB3LYP) =  -533.770365466     A.U. after   12 cycles
 SCF Done:  E(RB3LYP) =  -533.770668557     A.U. after   12 cycles
 SCF Done:  E(RB3LYP) =  -533.770287879     A.U. after   12 cycles
 SCF Done:  E(RB3LYP) =  -533.770686580     A.U. after   12 cycles
 SCF Done:  E(RB3LYP) =  -533.770715675     A.U. after    9 cycles
 SCF Done:  E(RB3LYP) =  -533.770728880     A.U. after   10 cycles
 SCF Done:  E(RB3LYP) =  -533.770735864     A.U. after   10 cycles
 SCF Done:  E(RB3LYP) =  -533.770736409     A.U. after    8 cycles
 Optimization completed.
    -- Stationary point found.
 Normal termination of Gaussian 16 at Wed Aug 14 18:56:34 2024.

 ----------------------------------------------------------------------
 #N Geom=AllCheck Guess=TCheck SCRF=Check GenChk RB3LYP/6-31G(d,p) Freq
 ----------------------------------------------------------------------

 Structure from the checkpoint file:  "pyrd13_conf-1.chk"
 ----------
 pyrd13.xyz
 ----------
 Charge =  0 Multiplicity = 1

 SCF Done:  E(RB3LYP) =  -533.770736409     A.U. after    1 cycles

                      1                      2                      3
                      A                      A                      A
 Frequencies --     70.0145               103.4628               138.3229
 Red. masses --      4.2079                 3.1369                 3.8905
 Frc consts  --      0.0122                 0.0198                 0.0439
 IR Inten    --      1.9703                 3.7380                 8.9840

                      4                      5                      6
                      A                      A                      A
 Frequencies --    179.1551               260.4647               281.4626
 Red. masses --      6.4982                 3.1734                 2.5933
 Frc consts  --      0.1229                 0.1268                 0.1210
 IR Inten    --      2.6393                 7.8683                 5.1160

                      7                      8                      9
                      A                      A                      A
 Frequencies --    328.6145               356.7750               404.8810
 Red. masses --      2.2042                 5.8639                 3.6086
 Frc consts  --      0.1402                 0.4398                 0.3485
 IR Inten    --      7.8220                 8.8323                 6.0343

                     10                     11                     12
                      A                      A                      A
 Frequencies --    435.5800               467.5013               503.7495
 Red. masses --      2.0114                 1.9501                 4.7091
 Frc consts  --      0.2249                 0.2511                 0.7041
 IR Inten    --     28.0033                49.2121                 4.1437

                     13                     14                     15
                      A                      A                      A
 Frequencies --    526.6281               619.7424               624.3863
 Red. masses --      2.2986                 5.8320                 4.6624
 Frc consts  --      0.3756                 1.3198                 1.0709
 IR Inten    --     23.6664                19.4258                 3.2612

                     16                     17                     18
                      A                      A                      A
 Frequencies --    695.8417               737.2351               772.9585
 Red. masses --      2.6966                 4.5500                 6.0091
 Frc consts  --      0.7693                 1.4570                 2.1153
 IR Inten    --      2.2504                25.7340                 9.0637

                     19                     20                     21
                      A                      A                      A
 Frequencies --    795.7374               839.8076               883.0889
 Red. masses --      5.0429                 1.2862                 1.9173
 Frc consts  --      1.8813                 0.5345                 0.8810
 IR Inten    --     40.8462                20.1727                 8.9554

                     22                     23                     24
                      A                      A                      A
 Frequencies --    891.6664               956.8370               967.2770
 Red. masses --      1.8550                 2.8386                 2.5728
 Frc consts  --      0.8690                 1.5312                 1.4183
 IR Inten    --      1.5887                21.0973                 0.9044

                     25                     26                     27
                      A                      A                      A
 Frequencies --    977.0430              1026.0607              1033.5158
 Red. masses --      1.3345                 2.2469                 1.8152
 Frc consts  --      0.7506                 1.3937                 1.1424
 IR Inten    --      0.3161                 2.4000                 0.0317

                     28                     29                     30
                      A                      A                      A
 Frequencies --   1100.2266              1128.7393              1134.7361
 Red. masses --      1.7492                 1.8922                 1.4044
 Frc consts  --      1.2475                 1.4204                 1.0655
 IR Inten    --      5.4538                 7.7375                 7.3101

                     31                     32                     33
                      A                      A                      A
 Frequencies --   1206.8791              1214.4061              1223.0553
 Red. masses --      1.3539                 2.0518                 1.8300
 Frc consts  --      1.1619                 1.7828                 1.6129
 IR Inten    --      8.7703                11.9083                22.9113

                     34                     35                     36
                      A                      A                      A
 Frequencies --   1259.5280              1296.5040              1336.9557
 Red. masses --      1.8659                 1.2989                 2.0331
 Frc consts  --      1.7440                 1.2864                 2.1411
 IR Inten    --     31.9766                 3.4149                74.2046

                     37                     38                     39
                      A                      A                      A
 Frequencies --   1350.3318              1355.4043              1379.1111
 Red. masses --      2.1185                 2.2280                 1.5506
 Frc consts  --      2.2759                 2.4116                 1.7375
 IR Inten    --     23.1081                15.9371                15.9942

                     40                     41                     42
                      A                      A                      A
 Frequencies --   1387.2352              1401.8773              1437.1180
 Red. masses --      1.7042                 1.4432                 2.0042
 Frc consts  --      1.9323                 1.6710                 2.4388
 IR Inten    --     34.0833                32.3055                17.9603

                     43                     44                     45
                      A                      A                      A
 Frequencies --   1486.6451              1500.3822              1507.8154
 Red. masses --      1.1906                 1.1313                 2.2458
 Frc consts  --      1.5504                 1.5005                 3.0083
 IR Inten    --     17.1600                22.6309                56.8472

                     46                     47                     48
                      A                      A                      A
 Frequencies --   1527.6531              1563.6771              1624.4520
 Red. masses --      1.2753                 2.4725                 6.2794
 Frc consts  --      1.7535                 3.5619                 9.7630
 IR Inten    --     12.9525               149.4839                38.5045

                     49                     50                     51
                      A                      A                      A
 Frequencies --   1654.1488              1803.7022              2941.7958
 Red. masses --      6.1807                 9.9906                 1.0858
 Frc consts  --      9.9641                19.1501                 5.5363
 IR Inten    --    159.4924               236.6074               115.1905

                     52                     53                     54
                      A                      A                      A
 Frequencies --   2974.0195              3020.2746              3058.2452
 Red. masses --      1.0732                 1.0685                 1.0635
 Frc consts  --      5.5928                 5.7428                 5.8603
 IR Inten    --     81.1954                25.0537                13.6834

                     55                     56                     57
                      A                      A                      A
 Frequencies --   3078.7666              3088.0252              3110.1128
 Red. masses --      1.0925                 1.0899                 1.1057
 Frc consts  --      6.1012                 6.1234                 6.3013
 IR Inten    --     30.0447                50.3224                35.0012

                     58                     59                     60
                      A                      A                      A
 Frequencies --   3177.1479              3233.5894              3639.9022
 Red. masses --      1.0904                 1.0930                 1.0766
 Frc consts  --      6.4850                 6.7337                 8.4036
 IR Inten    --     15.6313                 0.6897                35.8219

 - Thermochemistry -
 -------------------
 Temperature   298.150 Kelvin.  Pressure   1.00000 Atm.
 Atom     1 has atomic number  8 and mass  15.99491

 Molecular mass:   162.07931 amu.
 Principal axes and moments of inertia in atomic units:
                                 1                 2                 3
     Eigenvalues --          701.224727       3150.810715       3790.077658
           X                   1.000000          0.000140         -0.000132
           Y                  -0.000141          0.999997         -0.002369
           Z                   0.000132          0.002369          0.999997
 This molecule is an asymmetric top.
 Rotational symmetry number  1.
 Warning -- assumption of classical behavior for rotation
           may cause significant error
 Rotational temperatures (Kelvin)      0.12352     0.02749     0.02285
 Rotational constants (GHZ):           2.57370     0.57279     0.47618
 Zero-point vibrational energy     473005.1 (Joules/Mol)
                                  113.05093 (Kcal/Mol)
 Warning -- explicit consideration of  14 degrees of freedom as
           vibrations may cause significant error
 Vibrational temperatures:    100.74   148.86   199.02   257.76   374.75
          (Kelvin)            404.96   472.80   513.32   582.53   626.70
                              672.63   724.78   757.70   891.67   898.35
                             1001.16  1060.72  1112.11  1144.89  1208.30
                             1270.57  1282.91  1376.68  1391.70  1405.75
                             1476.27  1487.00  1582.98  1624.00  1632.63
                             1736.43  1747.26  1759.70  1812.18  1865.38
                             1923.58  1942.83  1950.12  1984.23  1995.92
                             2016.99  2067.69  2138.95  2158.72  2169.41
                             2197.95  2249.78  2337.22  2379.95  2595.13
                             4232.59  4278.95  4345.50  4400.13  4429.66
                             4442.98  4474.76  4571.21  4652.41  5237.01

 Zero-point correction=                           0.180158 (Hartree/Particle)
 Thermal correction to Energy=                    0.189958
 Thermal correction to Enthalpy=                  0.190902
 Thermal correction to Gibbs Free Energy=         0.144773
 Sum of electronic and zero-point Energies=           -533.590578
 Sum of electronic and thermal Energies=              -533.580778
 Sum of electronic and thermal Enthalpies=            -533.579834
 Sum of electronic and thermal Free Energies=         -533.625964

                     E (Thermal)             CV                S
                      KCal/Mol        Cal/Mol-Kelvin    Cal/Mol-Kelvin
 Total                  119.200             38.346             97.088
 Electronic               0.000              0.000              0.000
 Translational            0.889              2.981             41.157
 Rotational               0.889              2.981             30.505
 Vibrational            117.423             32.384             25.425
 Vibration     1          0.598              1.968              4.153
 Vibration     2          0.605              1.946              3.388
 Vibration     3          0.614              1.915              2.827
 Vibration     4          0.629              1.868              2.337
 Vibration     5          0.669              1.745              1.659
 Vibration     6          0.681              1.708              1.525
 Vibration     7          0.712              1.618              1.267
 Vibration     8          0.732              1.561              1.136
 Vibration     9          0.770              1.460              0.945
 Vibration    10          0.796              1.393              0.841
 Vibration    11          0.825              1.322              0.745
 Vibration    12          0.859              1.242              0.649
 Vibration    13          0.882              1.191              0.595
 Vibration    14          0.980              0.990              0.417

                           ! Non-Optimized Parameters !
 Normal termination of Gaussian 16 at Wed Aug 14 18:58:19 2024.

 ----------------------------------------------------------------------
 # M062X/def2tzvp int=(grid=ultrafine) pop=nbo7 polar prop=efg volume g
 uess=read geom=check
 ----------------------------------------------------------------------

 ----------
 pyrd13.xyz
 ----------
 Structure from the checkpoint file:  "pyrd13_conf-1.chk"
 Charge =  0 Multiplicity = 1

 SCF Done:  E(RM062X) =  -533.689780485     A.U. after   13 cycles

  Exact polarizability:     171.540       2.715     121.252      -1.571       0.387      71.995
 Approx polarizability:     192.574       6.797     163.484      -2.470       1.408     100.006

 Summary of Natural Population Analysis:

                                     Natural Population
             Natural    ---------------------------------------------
  Atom No    Charge        Core      Valence    Rydberg      Total
 --------------------------------------------------------------------
    O  1   -0.51513      2.00000     6.49052    0.02461     8.51513
    C  2    0.40806      1.99999     3.56093    0.03102     5.59194
    C  3    0.06852      1.99999     3.90918    0.02230     5.93148
    C  4   -0.24998      1.99999     4.23269    0.01729     6.24998
    C  5   -0.15366      1.99999     4.13742    0.01625     6.15366
    C  6   -0.08622      1.99999     4.06944    0.01679     6.08622
    C  7   -0.42203      1.99999     4.41051    0.01153     6.42203
    C  8   -0.39794      1.99999     4.38743    0.01051     6.39794
    C  9   -0.20914      1.99999     4.19694    0.01220     6.20914
    N 10   -0.59541      2.00000     5.57366    0.02175     7.59541
    C 11    0.37693      1.99999     3.60127    0.02181     5.62307
    N 12   -0.45409      1.99999     5.42335    0.03075     7.45409
    H 13    0.12545      0.00000     0.87153    0.00302     0.87455
    H 14    0.24095      0.00000     0.75762    0.00143     0.75905
    H 15    0.21472      0.00000     0.78377    0.00151     0.78528
    H 16    0.21555      0.00000     0.78256    0.00190     0.78445
    H 17    0.22195      0.00000     0.77645    0.00161     0.77805
    H 18    0.20858      0.00000     0.78967    0.00175     0.79142
    H 19    0.21551      0.00000     0.78323    0.00126     0.78449
    H 20    0.20717      0.00000     0.79141    0.00142     0.79283
    H 21    0.17571      0.00000     0.82183    0.00246     0.82429
    H 22    0.40449      0.00000     0.59337    0.00214     0.59551
 ====================================================================
 * Total *  0.00000     23.99991    61.74479    0.25530    86.00000

 Normal termination of Gaussian 16 at Wed Aug 14 19:04:26 2024.
 Gaussian 16:  ES64L-G16RevC.01  3-Jul-2019

 --------------------------------------------------------------------
 # M062X/def2tzvp int=(grid=ultrafine) nmr=giao guess=read geom=check
 --------------------------------------------------------------------

 ----------
 pyrd13.xyz
 ----------
 Structure from the checkpoint file:  "pyrd13_conf-1.chk"
 Charge =  0 Multiplicity = 1

                         Standard orientation:
 ---------------------------------------------------------------------
 Center     Atomic      Atomic             Coordinates (Angstroms)
 Number     Number       Type             X           Y           Z
 ---------------------------------------------------------------------
      1          8           0        4.195430   -0.118511   -0.042972
      2          6           0        3.161907   -0.758999   -0.037609
      3          6           0        1.803379   -0.156383   -0.008086
      4          6           0        1.636557    1.226455    0.017422
      5          6           0        0.329717    1.715236    0.051934
      6          6           0       -0.749039    0.841088    0.062769
      7          6           0       -2.184665    1.309990    0.132010
      8          6           0       -3.151198    0.249789   -0.411060
      9          6           0       -2.857528   -1.108552    0.229041
     10          7           0       -1.476528   -1.473014   -0.031652
     11          6           0       -0.459624   -0.550707    0.018360
     12          7           0        0.787513   -1.035642   -0.009367
     13          1           0        3.150973   -1.868607   -0.054715
     14          1           0        2.506458    1.871464    0.011767
     15          1           0        0.143810    2.786251    0.073803
     16          1           0       -2.443462    1.531375    1.177061
     17          1           0       -2.296919    2.251625   -0.416310
     18          1           0       -3.033801    0.160571   -1.496582
     19          1           0       -4.187519    0.537616   -0.210878
     20          1           0       -3.505768   -1.881001   -0.195542
     21          1           0       -3.070657   -1.059660    1.309905
     22          1           0       -1.180479   -2.428464    0.103719
 ---------------------------------------------------------------------

 SCF Done:  E(RM062X) =  -533.689780485     A.U. after    1 cycles

      1  O    Isotropic =  -454.7744   Anisotropy =  1256.3687

      2  C    Isotropic =   -36.7482   Anisotropy =   173.8632

      3  C    Isotropic =    11.4176   Anisotropy =   189.7091

      4  C    Isotropic =    56.1623   Anisotropy =   197.9711

      5  C    Isotropic =    25.4597   Anisotropy =   213.2682

      6  C    Isotropic =    46.6586   Anisotropy =   188.1442

      7  C    Isotropic =   156.1239   Anisotropy =    14.4295

      8  C    Isotropic =   162.2501   Anisotropy =    11.6496

      9  C    Isotropic =   141.5324   Anisotropy =    24.4177

     10  N    Isotropic =   164.1775   Anisotropy =    92.0083

     11  C    Isotropic =     8.2888   Anisotropy =   181.3828

     12  N    Isotropic =   -81.0900   Anisotropy =   495.4721

     13  H    Isotropic =    21.1990   Anisotropy =     4.2428

     14  H    Isotropic =    23.7645   Anisotropy =     6.0862

     15  H    Isotropic =    23.8769   Anisotropy =     8.4378

     16  H    Isotropic =    29.0809   Anisotropy =     7.9595

     17  H    Isotropic =    29.0639   Anisotropy =     8.5588

     18  H    Isotropic =    29.9497   Anisotropy =     8.4987

     19  H    Isotropic =    30.0083   Anisotropy =     9.5768

     20  H    Isotropic =    28.4297   Anisotropy =     8.4490

     21  H    Isotropic =    28.4575   Anisotropy =     8.8289

     22  H    Isotropic =    27.2536   Anisotropy =    11.7682

 The electronic state is 1-A.
 Alpha  occ. eigenvalues --  -19.62384 -14.76622 -14.75099 -10.62278 -10.62144
 Alpha  occ. eigenvalues --  -10.58645 -10.58091 -10.56316 -10.56199 -10.55744
 Alpha  occ. eigenvalues --  -10.55368 -10.54524  -1.16425  -1.09124  -1.02317
 Alpha  occ. eigenvalues --   -0.93227  -0.88149  -0.87334  -0.78517  -0.74801
 Alpha  occ. eigenvalues --   -0.72676  -0.69046  -0.64082  -0.61639  -0.59004
 Alpha  occ. eigenvalues --   -0.57013  -0.54399  -0.53011  -0.51775  -0.50715
 Alpha  occ. eigenvalues --   -0.50489  -0.49856  -0.48400  -0.47246  -0.46052
 Alpha  occ. eigenvalues --   -0.42345  -0.42004  -0.40998  -0.37589  -0.35023
 Alpha  occ. eigenvalues --   -0.33794  -0.32482  -0.26582
 Alpha virt. eigenvalues --   -0.03406   0.01280   0.05253   0.07378   0.07916
 Alpha virt. eigenvalues --    0.09335   0.10218   0.10710   0.11830   0.12336
 Alpha virt. eigenvalues --    0.13375   0.14674   0.15029   0.15322   0.17086

 Mulliken charges:
               1
     1  O   -0.297477
     2  C    0.080844
     3  C    0.122365
     4  C   -0.216630
     5  C   -0.122569
     6  C   -0.028416
     7  C   -0.313535
     8  C   -0.292003
     9  C   -0.162773
    10  N   -0.367723
    11  C    0.310327
    12  N   -0.296673
    13  H    0.107608
    14  H    0.170513
    15  H    0.149117
    16  H    0.166523
    17  H    0.154137
    18  H    0.157185
    19  H    0.149410
    20  H    0.146715
    21  H    0.143496
    22  H    0.239559
 Sum of Mulliken charges =  -0.00000

 Dipole moment (field-independent basis, Debye):
    X=             -5.7495    Y=              0.3027    Z=              0.4469  Tot=              5.7747
 Quadrupole moment (field-independent basis, Debye-Ang):
   XX=            -79.4772   YY=            -63.2902   ZZ=            -71.8969
   XY=              0.4720   XZ=             -0.5414   YZ=             -0.6918

 Normal termination of Gaussian 16 at Wed Aug 14 19:06:40 2024.
