 Gaussian 16, Revision C.01,

 ----------------------------------------------------------------------
 # B3LYP/6-31G(d,p) symmetry=loose empiricaldispersion=GD3BJ int=(grid=
 ultrafine) opt=calcfc freq=noraman
 ----------------------------------------------------------------------

 ----------
 pyrmd1.xyz
 ----------
 Symbolic Z-matrix:
 Charge =  0 Multiplicity = 1

 SCF Done:  E(RB3LYP) =  -626.268895682     A.U. after   15 cycles
 SCF Done:  E(RB3LYP) =  -626.274028171     A.U. after   13 cycles
 SCF Done:  E(RB3LYP) =  -626.272116993     A.U. after   14 cycles
 SCF Done:  E(RB3LYP) =  -626.274751594     A.U. after   12 cycles
 SCF Done:  E(RB3LYP) =  -626.274825640     A.U. after   11 cycles
 SCF Done:  E(RB3LYP) =  -626.274844036     A.U. after   11 cycles
 SCF Done:  E(RB3LYP) =  -626.274846881     A.U. after    9 cycles
 SCF Done:  E(RB3LYP) =  -626.274851955     A.U. after    9 cycles
 SCF Done:  E(RB3LYP) =  -626.274853978     A.U. after    9 cycles
 SCF Done:  E(RB3LYP) =  -626.274854888     A.U. after    9 cycles
 SCF Done:  E(RB3LYP) =  -626.274854961     A.U. after    7 cycles
 Optimization completed.
    -- Stationary point found.
 Normal termination of Gaussian 16 at Fri Aug 16 13:57:17 2024.

 ----------------------------------------------------------------------
 #N Geom=AllCheck Guess=TCheck SCRF=Check GenChk RB3LYP/6-31G(d,p) Freq
 ----------------------------------------------------------------------

 Structure from the checkpoint file:  "pyrmd1_conf-3.chk"
 ----------
 pyrmd1.xyz
 ----------
 Charge =  0 Multiplicity = 1

 SCF Done:  E(RB3LYP) =  -626.274854961     A.U. after    1 cycles

                      1                      2                      3
                      A                      A                      A
 Frequencies --     26.4369                65.0604                79.2307
 Red. masses --      3.7350                 2.8836                 5.4008
 Frc consts  --      0.0015                 0.0072                 0.0200
 IR Inten    --      0.4265                 0.4464                 0.1467

                      4                      5                      6
                      A                      A                      A
 Frequencies --    105.5846               125.2337               152.6674
 Red. masses --      3.8115                 2.6852                 1.1721
 Frc consts  --      0.0250                 0.0248                 0.0161
 IR Inten    --      1.0023                22.0419               236.7908

                      7                      8                      9
                      A                      A                      A
 Frequencies --    189.5622               213.6841               258.6509
 Red. masses --      1.3079                 2.2306                 1.4720
 Frc consts  --      0.0277                 0.0600                 0.0580
 IR Inten    --      2.4405                 0.0898                 4.2293

                     10                     11                     12
                      A                      A                      A
 Frequencies --    259.2799               300.7635               310.5202
 Red. masses --      4.1042                 3.7637                 5.1237
 Frc consts  --      0.1626                 0.2006                 0.2911
 IR Inten    --      2.0124                16.5999                 4.6221

                     13                     14                     15
                      A                      A                      A
 Frequencies --    328.4206               392.2384               421.8823
 Red. masses --      2.7437                 4.9404                 3.4276
 Frc consts  --      0.1744                 0.4478                 0.3594
 IR Inten    --      7.1828                13.0609                 1.2440

                     16                     17                     18
                      A                      A                      A
 Frequencies --    458.2977               547.9592               569.0769
 Red. masses --      3.3901                 2.8608                 1.1674
 Frc consts  --      0.4195                 0.5061                 0.2228
 IR Inten    --      0.2635                13.3571                 0.0696

                     19                     20                     21
                      A                      A                      A
 Frequencies --    577.0715               628.5877               661.8612
 Red. masses --      5.3907                 3.6715                 7.5031
 Frc consts  --      1.0577                 0.8547                 1.9365
 IR Inten    --      1.1320                 2.4792                 4.9250

                     22                     23                     24
                      A                      A                      A
 Frequencies --    758.0556               780.6063               813.5129
 Red. masses --      8.4558                 5.5010                 1.2445
 Frc consts  --      2.8629                 1.9750                 0.4853
 IR Inten    --      4.2486                 5.5215                 5.5150

                     25                     26                     27
                      A                      A                      A
 Frequencies --    818.0623               858.6839               899.1119
 Red. masses --      4.9228                 6.5429                 2.5618
 Frc consts  --      1.9411                 2.8424                 1.2202
 IR Inten    --     22.5907                 3.7584                 3.7649

                     28                     29                     30
                      A                      A                      A
 Frequencies --    973.6738              1013.6777              1017.8615
 Red. masses --      3.3254                 1.4457                 1.5942
 Frc consts  --      1.8574                 0.8753                 0.9731
 IR Inten    --      2.4386                 1.6650                 6.9693

                     31                     32                     33
                      A                      A                      A
 Frequencies --   1051.9315              1061.8908              1097.5835
 Red. masses --      3.1541                 1.6085                 2.0086
 Frc consts  --      2.0564                 1.0686                 1.4257
 IR Inten    --     31.9436                 4.6693                 0.1785

                     34                     35                     36
                      A                      A                      A
 Frequencies --   1135.9342              1147.2355              1185.7211
 Red. masses --      3.5939                 3.3069                 1.5477
 Frc consts  --      2.7323                 2.5643                 1.2820
 IR Inten    --    134.6848                61.2049                 4.1576

                     37                     38                     39
                      A                      A                      A
 Frequencies --   1245.2785              1296.1042              1299.8046
 Red. masses --      3.6074                 1.1005                 4.1573
 Frc consts  --      3.2959                 1.0893                 4.1383
 IR Inten    --    156.4752                 0.5769               389.4888

                     40                     41                     42
                      A                      A                      A
 Frequencies --   1314.7823              1385.6200              1407.1936
 Red. masses --      2.7092                 1.8621                 1.5088
 Frc consts  --      2.7593                 2.1064                 1.7603
 IR Inten    --    189.1540                33.0891                33.5165

                     43                     44                     45
                      A                      A                      A
 Frequencies --   1418.1567              1438.1385              1454.6924
 Red. masses --      1.4400                 1.4468                 2.1376
 Frc consts  --      1.7063                 1.7631                 2.6652
 IR Inten    --     25.6325                 8.6506               132.1468

                     46                     47                     48
                      A                      A                      A
 Frequencies --   1491.4884              1492.0576              1501.1869
 Red. masses --      1.6200                 1.0510                 1.0398
 Frc consts  --      2.1232                 1.3786                 1.3805
 IR Inten    --     14.2232                 5.9205                 7.4848

                     49                     50                     51
                      A                      A                      A
 Frequencies --   1507.2336              1512.1194              1533.1101
 Red. masses --      2.1465                 1.0503                 1.0932
 Frc consts  --      2.8730                 1.4149                 1.5139
 IR Inten    --     73.8321                 1.0292                 3.3833

                     52                     53                     54
                      A                      A                      A
 Frequencies --   1579.9480              1639.8230              1659.7293
 Red. masses --      6.6998                 2.8350                 3.0716
 Frc consts  --      9.8537                 4.4915                 4.9853
 IR Inten    --    113.6557                20.4047               995.8051

                     55                     56                     57
                      A                      A                      A
 Frequencies --   1782.5407              3055.9420              3068.4339
 Red. masses --     12.1849                 1.0354                 1.0581
 Frc consts  --     22.8114                 5.6971                 5.8694
 IR Inten    --    270.6925                15.3468                18.7227

                     58                     59                     60
                      A                      A                      A
 Frequencies --   3070.5208              3107.7958              3131.8394
 Red. masses --      1.0355                 1.1076                 1.1020
 Frc consts  --      5.7522                 6.3028                 6.3682
 IR Inten    --      6.9204                 5.4827                27.5778

                     61                     62                     63
                      A                      A                      A
 Frequencies --   3135.0003              3138.2479              3169.1681
 Red. masses --      1.0993                 1.1050                 1.1053
 Frc consts  --      6.3658                 6.4122                 6.5407
 IR Inten    --      5.6761                38.2379                12.0315

                     64                     65                     66
                      A                      A                      A
 Frequencies --   3195.1577              3633.7532              3778.2487
 Red. masses --      1.0917                 1.0442                 1.1065
 Frc consts  --      6.5664                 8.1234                 9.3061
 IR Inten    --      2.8778               139.1934                58.6748

 - Thermochemistry -
 -------------------
 Temperature   298.150 Kelvin.  Pressure   1.00000 Atm.
 Atom     1 has atomic number  7 and mass  14.00307

 Molecular mass:   181.08513 amu.
 Principal axes and moments of inertia in atomic units:
                                 1                 2                 3
     Eigenvalues --          929.603983       4077.710714       4973.641936
           X                   0.999937          0.011215          0.000600
           Y                  -0.011215          0.999937         -0.000404
           Z                  -0.000604          0.000397          1.000000
 This molecule is an asymmetric top.
 Rotational symmetry number  1.
 Warning -- assumption of classical behavior for rotation
           may cause significant error
 Rotational temperatures (Kelvin)      0.09317     0.02124     0.01741
 Rotational constants (GHZ):           1.94141     0.44259     0.36286
 Zero-point vibrational energy     506790.3 (Joules/Mol)
                                  121.12580 (Kcal/Mol)
 Warning -- explicit consideration of  19 degrees of freedom as
           vibrations may cause significant error
 Vibrational temperatures:     38.04    93.61   114.00   151.91   180.18
          (Kelvin)            219.65   272.74   307.44   372.14   373.05
                              432.73   446.77   472.52   564.34   606.99
                              659.39   788.39   818.77   830.28   904.40
                              952.27  1090.67  1123.12  1170.46  1177.01
                             1235.45  1293.62  1400.90  1458.46  1464.48
                             1513.49  1527.82  1579.18  1634.36  1650.62
                             1705.99  1791.68  1864.80  1870.13  1891.68
                             1993.60  2024.64  2040.41  2069.16  2092.98
                             2145.92  2146.74  2159.87  2168.57  2175.60
                             2205.80  2273.19  2359.34  2387.98  2564.68
                             4396.82  4414.79  4417.79  4471.42  4506.02
                             4510.57  4515.24  4559.73  4597.12  5228.16
                             5436.06

 Zero-point correction=                           0.193026 (Hartree/Particle)
 Thermal correction to Energy=                    0.206144
 Thermal correction to Enthalpy=                  0.207088
 Thermal correction to Gibbs Free Energy=         0.152563
 Sum of electronic and zero-point Energies=           -626.081829
 Sum of electronic and thermal Energies=              -626.068711
 Sum of electronic and thermal Enthalpies=            -626.067767
 Sum of electronic and thermal Free Energies=         -626.122292

                     E (Thermal)             CV                S
                      KCal/Mol        Cal/Mol-Kelvin    Cal/Mol-Kelvin
 Total                  129.357             47.411            114.759
 Electronic               0.000              0.000              0.000
 Translational            0.889              2.981             41.488
 Rotational               0.889              2.981             31.311
 Vibrational            127.580             41.450             41.959
 Vibration     1          0.593              1.985              6.080
 Vibration     2          0.597              1.971              4.297
 Vibration     3          0.600              1.963              3.910
 Vibration     4          0.605              1.945              3.349
 Vibration     5          0.610              1.928              3.018
 Vibration     6          0.619              1.900              2.639
 Vibration     7          0.633              1.854              2.232
 Vibration     8          0.644              1.820              2.012
 Vibration     9          0.667              1.748              1.671
 Vibration    10          0.668              1.747              1.667
 Vibration    11          0.693              1.672              1.413
 Vibration    12          0.699              1.654              1.360
 Vibration    13          0.712              1.619              1.268
 Vibration    14          0.760              1.487              0.992
 Vibration    15          0.784              1.423              0.886
 Vibration    16          0.816              1.343              0.771
 Vibration    17          0.903              1.144              0.548
 Vibration    18          0.925              1.098              0.506
 Vibration    19          0.934              1.081              0.491

 Optimization completed.
    -- Stationary point found.
 Normal termination of Gaussian 16 at Fri Aug 16 13:59:19 2024.

 ----------------------------------------------------------------------
 # M062X/def2tzvp int=(grid=ultrafine) pop=nbo7 polar prop=efg volume g
 uess=read geom=check
 ----------------------------------------------------------------------

 ----------
 pyrmd1.xyz
 ----------
 Structure from the checkpoint file:  "pyrmd1_conf-3.chk"
 Charge =  0 Multiplicity = 1

 SCF Done:  E(RM062X) =  -626.201983204     A.U. after   12 cycles

  Exact polarizability:     179.210      -2.650     122.715      -0.205       0.037      74.343
 Approx polarizability:     189.041      -7.282     160.135      -0.463       0.125     101.646

 Summary of Natural Population Analysis:

                                     Natural Population
             Natural    ---------------------------------------------
  Atom No    Charge        Core      Valence    Rydberg      Total
 --------------------------------------------------------------------
    N  1   -0.77438      2.00000     5.75419    0.02020     7.77438
    C  2    0.56675      1.99999     3.40679    0.02647     5.43325
    N  3   -0.52043      1.99999     5.48767    0.03277     7.52043
    C  4    0.32778      1.99999     3.65245    0.01977     5.67222
    C  5   -0.64721      1.99999     4.63685    0.01037     6.64721
    C  6   -0.32396      1.99999     4.30630    0.01767     6.32396
    C  7    0.78505      1.99999     3.18041    0.03455     5.21495
    O  8   -0.51377      2.00000     6.49136    0.02241     8.51377
    C  9   -0.07298      1.99999     4.05704    0.01595     6.07298
    C 10   -0.62269      1.99999     4.61294    0.00975     6.62269
    O 11   -0.61024      2.00000     6.58538    0.02486     8.61024
    C 12    0.15179      1.99999     3.82585    0.02236     5.84821
    N 13   -0.50412      1.99999     5.47167    0.03246     7.50412
    H 14    0.40738      0.00000     0.59110    0.00153     0.59262
    H 15    0.40842      0.00000     0.59012    0.00146     0.59158
    H 16    0.23589      0.00000     0.76294    0.00117     0.76411
    H 17    0.22957      0.00000     0.76897    0.00146     0.77043
    H 18    0.23634      0.00000     0.76249    0.00117     0.76366
    H 19    0.18902      0.00000     0.80903    0.00195     0.81098
    H 20    0.18910      0.00000     0.80895    0.00195     0.81090
    H 21    0.21174      0.00000     0.78714    0.00111     0.78826
    H 22    0.21184      0.00000     0.78704    0.00112     0.78816
    H 23    0.21753      0.00000     0.78169    0.00077     0.78247
    H 24    0.22157      0.00000     0.77681    0.00162     0.77843
 ====================================================================
 * Total *  0.00000     25.99990    69.69520    0.30490    96.00000

 Normal termination of Gaussian 16 at Fri Aug 16 14:06:09 2024.
 Gaussian 16:  ES64L-G16RevC.01  3-Jul-2019

 --------------------------------------------------------------------
 # M062X/def2tzvp int=(grid=ultrafine) nmr=giao guess=read geom=check
 --------------------------------------------------------------------

 ----------
 pyrmd1.xyz
 ----------
 Structure from the checkpoint file:  "pyrmd1_conf-3.chk"
 Charge =  0 Multiplicity = 1

                         Standard orientation:
 ---------------------------------------------------------------------
 Center     Atomic      Atomic             Coordinates (Angstroms)
 Number     Number       Type             X           Y           Z
 ---------------------------------------------------------------------
      1          7           0       -4.224253    0.384968    0.028194
      2          6           0       -2.901368    0.101060    0.004769
      3          7           0       -2.058174    1.152130   -0.001157
      4          6           0       -0.746797    0.897062   -0.003346
      5          6           0        0.136092    2.114680   -0.010372
      6          6           0       -0.274924   -0.438164   -0.000857
      7          6           0        1.128836   -0.902606   -0.002447
      8          8           0        2.035685    0.101882    0.002471
      9          6           0        3.419870   -0.310208    0.002165
     10          6           0        4.263126    0.948624    0.007988
     11          8           0        1.453842   -2.076924   -0.006866
     12          6           0       -1.257962   -1.441015   -0.001613
     13          7           0       -2.562526   -1.207001    0.000513
     14          1           0       -4.518515    1.342421   -0.062407
     15          1           0       -4.883590   -0.369505   -0.060843
     16          1           0        0.793168    2.116701   -0.883465
     17          1           0       -0.496125    3.002693   -0.016514
     18          1           0        0.790218    2.127685    0.864899
     19          1           0        3.604406   -0.927964   -0.881720
     20          1           0        3.602642   -0.934903    0.881522
     21          1           0        4.059956    1.558657   -0.876683
     22          1           0        4.057939    1.551729    0.896926
     23          1           0        5.324996    0.685166    0.008162
     24          1           0       -0.937875   -2.479611   -0.005287
 ---------------------------------------------------------------------

 SCF Done:  E(RM062X) =  -626.201983204     A.U. after    1 cycles

      1  N    Isotropic =   160.4602   Anisotropy =   119.2556

      2  C    Isotropic =     1.4798   Anisotropy =   160.4205

      3  N    Isotropic =   -50.8380   Anisotropy =   425.2181

      4  C    Isotropic =   -13.0426   Anisotropy =   239.3250

      5  C    Isotropic =   154.9289   Anisotropy =    35.8579

      6  C    Isotropic =    53.4846   Anisotropy =   165.1677

      7  C    Isotropic =     0.0390   Anisotropy =   101.3090

      8  O    Isotropic =    99.0151   Anisotropy =   162.8645

      9  C    Isotropic =   120.2585   Anisotropy =    62.1858

     10  C    Isotropic =   171.1047   Anisotropy =    21.7697

     11  O    Isotropic =  -120.9979   Anisotropy =   660.1518

     12  C    Isotropic =    -5.7047   Anisotropy =   225.4985

     13  N    Isotropic =   -48.0138   Anisotropy =   475.8165

     14  H    Isotropic =    26.8203   Anisotropy =     9.1992

     15  H    Isotropic =    26.7924   Anisotropy =     9.7046

     16  H    Isotropic =    28.9985   Anisotropy =     5.5955

     17  H    Isotropic =    29.5219   Anisotropy =     7.4692

     18  H    Isotropic =    28.9915   Anisotropy =     5.6220

     19  H    Isotropic =    27.7012   Anisotropy =     6.0014

     20  H    Isotropic =    27.7017   Anisotropy =     6.0151

     21  H    Isotropic =    30.4264   Anisotropy =     7.5698

     22  H    Isotropic =    30.4246   Anisotropy =     7.5739

     23  H    Isotropic =    30.6762   Anisotropy =    10.2230

     24  H    Isotropic =    21.9036   Anisotropy =     9.2659

 The electronic state is 1-A.
 Alpha  occ. eigenvalues --  -19.67199 -19.61120 -14.77341 -14.75206 -14.75134
 Alpha  occ. eigenvalues --  -10.67647 -10.65607 -10.61335 -10.59807 -10.59561
 Alpha  occ. eigenvalues --  -10.55618 -10.53890 -10.53506  -1.23094  -1.13550
 Alpha  occ. eigenvalues --   -1.12178  -1.02210  -1.00319  -0.90373  -0.86868
 Alpha  occ. eigenvalues --   -0.82859  -0.76525  -0.72484  -0.71802  -0.66333
 Alpha  occ. eigenvalues --   -0.63887  -0.60915  -0.59606  -0.57920  -0.57091
 Alpha  occ. eigenvalues --   -0.54687  -0.53318  -0.50074  -0.49872  -0.48828
 Alpha  occ. eigenvalues --   -0.48117  -0.46912  -0.46018  -0.45137  -0.43453
 Alpha  occ. eigenvalues --   -0.42072  -0.40318  -0.39714  -0.37581  -0.37167
 Alpha  occ. eigenvalues --   -0.35440  -0.32345  -0.29225
 Alpha virt. eigenvalues --   -0.01178  -0.00343   0.05692   0.06766   0.09039
 Alpha virt. eigenvalues --    0.09534   0.10397   0.11081   0.11561   0.12640
 Alpha virt. eigenvalues --    0.13566   0.14119   0.14694   0.14914   0.15493

 Mulliken charges:
               1
     1  N   -0.501271
     2  C    0.411068
     3  N   -0.301305
     4  C    0.186432
     5  C   -0.476763
     6  C   -0.088544
     7  C    0.370252
     8  O   -0.286937
     9  C   -0.105485
    10  C   -0.419001
    11  O   -0.373921
    12  C   -0.052231
    13  N   -0.286001
    14  H    0.265257
    15  H    0.267056
    16  H    0.163715
    17  H    0.153122
    18  H    0.163959
    19  H    0.146157
    20  H    0.146220
    21  H    0.145631
    22  H    0.145821
    23  H    0.145552
    24  H    0.181220
 Sum of Mulliken charges =  -0.00000

 Dipole moment (field-independent basis, Debye):
    X=             -0.1708    Y=              2.5916    Z=             -0.2534  Tot=              2.6096
 Quadrupole moment (field-independent basis, Debye-Ang):
   XX=            -55.4141   YY=            -82.6106   ZZ=            -77.0819
   XY=              0.9045   XZ=              1.3479   YZ=             -0.1760

 Normal termination of Gaussian 16 at Fri Aug 16 14:08:40 2024.
