 Gaussian 16, Revision C.01,

 ----------------------------------------------------------------------
 # B3LYP/6-31G(d,p) symmetry=loose empiricaldispersion=GD3BJ int=(grid=
 ultrafine) opt=calcfc freq=noraman
 ----------------------------------------------------------------------

 ----------
 pyrmd2.xyz
 ----------
 Symbolic Z-matrix:
 Charge =  0 Multiplicity = 1

 SCF Done:  E(RB3LYP) =  -1453.94767173     A.U. after   14 cycles
 SCF Done:  E(RB3LYP) =  -1453.95320983     A.U. after   14 cycles
 SCF Done:  E(RB3LYP) =  -1453.95387810     A.U. after   15 cycles
 SCF Done:  E(RB3LYP) =  -1453.88473170     A.U. after   15 cycles
 SCF Done:  E(RB3LYP) =  -1453.95462299     A.U. after   13 cycles
 SCF Done:  E(RB3LYP) =  -1453.95175802     A.U. after   14 cycles
 SCF Done:  E(RB3LYP) =  -1453.95551555     A.U. after   13 cycles
 SCF Done:  E(RB3LYP) =  -1453.95561602     A.U. after   12 cycles
 SCF Done:  E(RB3LYP) =  -1453.95587126     A.U. after   13 cycles
 SCF Done:  E(RB3LYP) =  -1453.95588509     A.U. after   12 cycles
 SCF Done:  E(RB3LYP) =  -1453.95596658     A.U. after   12 cycles
 SCF Done:  E(RB3LYP) =  -1453.95597264     A.U. after   10 cycles
 SCF Done:  E(RB3LYP) =  -1453.95597412     A.U. after   10 cycles
 SCF Done:  E(RB3LYP) =  -1453.95597422     A.U. after    7 cycles
 SCF Done:  E(RB3LYP) =  -1453.95597423     A.U. after    7 cycles
 SCF Done:  E(RB3LYP) =  -1453.95597423     A.U. after    7 cycles
 Optimization completed.
    -- Stationary point found.
 Normal termination of Gaussian 16 at Fri Aug 16 13:59:36 2024.

 ----------------------------------------------------------------------
 #N Geom=AllCheck Guess=TCheck SCRF=Check GenChk RB3LYP/6-31G(d,p) Freq
 ----------------------------------------------------------------------

 Structure from the checkpoint file:  "pyrmd2_conf-2.chk"
 ----------
 pyrmd2.xyz
 ----------
 Charge =  0 Multiplicity = 1

 SCF Done:  E(RB3LYP) =  -1453.95597423     A.U. after    1 cycles

                      1                      2                      3
                      A                      A                      A
 Frequencies --     13.8957                16.4378                42.9683
 Red. masses --      4.9905                 5.4220                 7.1687
 Frc consts  --      0.0006                 0.0009                 0.0078
 IR Inten    --      0.0310                 0.0215                 0.0995

                      4                      5                      6
                      A                      A                      A
 Frequencies --    137.6633               166.8531               195.3098
 Red. masses --      8.5235                 5.1958                 6.0231
 Frc consts  --      0.0952                 0.0852                 0.1354
 IR Inten    --      1.6240                 3.1943                 0.4355

                      7                      8                      9
                      A                      A                      A
 Frequencies --    196.4171               204.1570               254.4082
 Red. masses --     13.7313                13.7563                 6.2533
 Frc consts  --      0.3121                 0.3378                 0.2385
 IR Inten    --      0.9176                 0.1582                 1.8251

                     10                     11                     12
                      A                      A                      A
 Frequencies --    353.4780               403.7419               414.9320
 Red. masses --      2.4136                17.8817                 2.9557
 Frc consts  --      0.1777                 1.7174                 0.2998
 IR Inten    --      0.2776                 5.3469                 0.0116

                     13                     14                     15
                      A                      A                      A
 Frequencies --    434.1655               479.3340               481.4892
 Red. masses --     13.3384                 3.4121                 3.9288
 Frc consts  --      1.4814                 0.4619                 0.5366
 IR Inten    --      5.6706                 0.1681                 2.2140

                     16                     17                     18
                      A                      A                      A
 Frequencies --    535.0169               605.9832               613.1122
 Red. masses --      5.3951                 4.7117                12.3851
 Frc consts  --      0.9099                 1.0194                 2.7430
 IR Inten    --      4.3484                25.2747                 0.0704

                     19                     20                     21
                      A                      A                      A
 Frequencies --    636.5055               680.9330               714.0461
 Red. masses --      6.2243                 4.6750                 1.7117
 Frc consts  --      1.4857                 1.2772                 0.5142
 IR Inten    --      0.0360                13.4054                34.3382

                     22                     23                     24
                      A                      A                      A
 Frequencies --    768.1851               793.2139               825.4411
 Red. masses --      2.1802                 5.3215                10.8945
 Frc consts  --      0.7580                 1.9727                 4.3735
 IR Inten    --     11.5633                 2.5433               161.7855

                     25                     26                     27
                      A                      A                      A
 Frequencies --    854.2822               857.3307               863.7470
 Red. masses --      3.5839                 1.2505                 1.4752
 Frc consts  --      1.5410                 0.5415                 0.6485
 IR Inten    --      6.9223                 0.1353                20.6072

                     28                     29                     30
                      A                      A                      A
 Frequencies --    921.1997               945.5745               953.4890
 Red. masses --      1.9539                 3.2939                 1.8928
 Frc consts  --      0.9769                 1.7352                 1.0139
 IR Inten    --      9.2266                25.1060                 6.7182

                     31                     32                     33
                      A                      A                      A
 Frequencies --    971.3104               998.5169              1004.9251
 Red. masses --      1.3568                 1.2876                 7.8232
 Frc consts  --      0.7542                 0.7564                 4.6548
 IR Inten    --      0.0946                 0.2153                 0.4490

                     34                     35                     36
                      A                      A                      A
 Frequencies --   1021.2401              1058.4925              1102.1405
 Red. masses --      6.2691                 2.2210                 1.5880
 Frc consts  --      3.8522                 1.4661                 1.1365
 IR Inten    --      0.8929                 4.0334                24.1771

                     37                     38                     39
                      A                      A                      A
 Frequencies --   1127.9713              1187.9430              1190.8261
 Red. masses --      1.4622                 1.1662                 1.2214
 Frc consts  --      1.0961                 0.9696                 1.0204
 IR Inten    --     13.0911                 5.2608                11.8774

                     40                     41                     42
                      A                      A                      A
 Frequencies --   1210.0026              1220.5391              1265.8148
 Red. masses --      1.1391                 2.7901                 7.0926
 Frc consts  --      0.9826                 2.4489                 6.6957
 IR Inten    --      1.7599                 9.1318               102.6722

                     43                     44                     45
                      A                      A                      A
 Frequencies --   1272.9912              1325.7607              1360.1436
 Red. masses --      5.6611                 1.5797                 3.3801
 Frc consts  --      5.4051                 1.6359                 3.6842
 IR Inten    --      1.2350                 5.9074                 0.3628

                     46                     47                     48
                      A                      A                      A
 Frequencies --   1365.0097              1410.5727              1421.7697
 Red. masses --      1.5439                 7.7145                 2.8961
 Frc consts  --      1.6948                 9.0437                 3.4492
 IR Inten    --      0.7952               119.2052                80.1366

                     49                     50                     51
                      A                      A                      A
 Frequencies --   1488.9465              1499.2215              1540.8773
 Red. masses --      1.1305                 2.2374                 2.2399
 Frc consts  --      1.4766                 2.9629                 3.1334
 IR Inten    --      6.2349                 1.9045                16.6139

                     52                     53                     54
                      A                      A                      A
 Frequencies --   1573.4740              1602.1553              1645.9785
 Red. masses --      7.5182                11.3994                 5.6801
 Frc consts  --     10.9669                17.2401                 9.0668
 IR Inten    --    377.1608               365.9834                 0.4139

                     55                     56                     57
                      A                      A                      A
 Frequencies --   1663.1596              3086.2569              3144.8557
 Red. masses --      5.6680                 1.0586                 1.1073
 Frc consts  --      9.2374                 5.9406                 6.4524
 IR Inten    --      1.7567                11.1038                 3.1171

                     58                     59                     60
                      A                      A                      A
 Frequencies --   3179.3582              3185.0414              3193.3391
 Red. masses --      1.0848                 1.0875                 1.0914
 Frc consts  --      6.4605                 6.5001                 6.5570
 IR Inten    --      1.9203                 0.3339                13.6417

                     61                     62                     63
                      A                      A                      A
 Frequencies --   3200.1230              3209.3575              3263.2795
 Red. masses --      1.0950                 1.0987                 1.0951
 Frc consts  --      6.6069                 6.6677                 6.8706
 IR Inten    --     28.4680                16.2816                 2.2975

 - Thermochemistry -
 -------------------
 Temperature   298.150 Kelvin.  Pressure   1.00000 Atm.
 Atom     1 has atomic number 17 and mass  34.96885

 Molecular mass:   238.00645 amu.
 Principal axes and moments of inertia in atomic units:
                                 1                 2                 3
     Eigenvalues --         2895.913688       5967.028066       7906.099490
           X                   0.999979          0.000000          0.006454
           Y                  -0.000000          1.000000         -0.000001
           Z                  -0.006454          0.000001          0.999979
 This molecule is an asymmetric top.
 Rotational symmetry number  1.
 Warning -- assumption of classical behavior for rotation
           may cause significant error
 Rotational temperatures (Kelvin)      0.02991     0.01452     0.01096
 Rotational constants (GHZ):           0.62320     0.30245     0.22827
 Zero-point vibrational energy     438758.6 (Joules/Mol)
                                  104.86582 (Kcal/Mol)
 Warning -- explicit consideration of  18 degrees of freedom as
           vibrations may cause significant error
 Vibrational temperatures:     19.99    23.65    61.82   198.07   240.06
          (Kelvin)            281.01   282.60   293.74   366.04   508.58
                              580.89   596.99   624.67   689.65   692.76
                              769.77   871.87   882.13   915.79   979.71
                             1027.35  1105.25  1141.26  1187.63  1229.12
                             1233.51  1242.74  1325.40  1360.47  1371.86
                             1397.50  1436.64  1445.86  1469.34  1522.93
                             1585.73  1622.90  1709.19  1713.33  1740.92
                             1756.08  1821.23  1831.55  1907.47  1956.94
                             1963.94  2029.50  2045.61  2142.26  2157.05
                             2216.98  2263.88  2305.14  2368.20  2392.92
                             4440.44  4524.75  4574.39  4582.56  4594.50
                             4604.26  4617.55  4695.13

 Zero-point correction=                           0.167114 (Hartree/Particle)
 Thermal correction to Energy=                    0.179609
 Thermal correction to Enthalpy=                  0.180554
 Thermal correction to Gibbs Free Energy=         0.124158
 Sum of electronic and zero-point Energies=          -1453.788860
 Sum of electronic and thermal Energies=             -1453.776365
 Sum of electronic and thermal Enthalpies=           -1453.775421
 Sum of electronic and thermal Free Energies=        -1453.831816

                     E (Thermal)             CV                S
                      KCal/Mol        Cal/Mol-Kelvin    Cal/Mol-Kelvin
 Total                  112.707             46.763            118.695
 Electronic               0.000              0.000              0.000
 Translational            0.889              2.981             42.303
 Rotational               0.889              2.981             33.279
 Vibrational            110.929             40.801             43.113
 Vibration     1          0.593              1.986              7.357
 Vibration     2          0.593              1.986              7.024
 Vibration     3          0.595              1.980              5.117
 Vibration     4          0.614              1.916              2.836
 Vibration     5          0.624              1.883              2.471
 Vibration     6          0.636              1.846              2.177
 Vibration     7          0.636              1.845              2.166
 Vibration     8          0.640              1.834              2.095
 Vibration     9          0.665              1.755              1.700
 Vibration    10          0.730              1.568              1.151
 Vibration    11          0.769              1.462              0.949
 Vibration    12          0.778              1.438              0.909
 Vibration    13          0.795              1.396              0.845
 Vibration    14          0.836              1.296              0.712
 Vibration    15          0.838              1.291              0.706
 Vibration    16          0.890              1.173              0.576
 Vibration    17          0.965              1.019              0.439
 Vibration    18          0.972              1.004              0.428

 Optimization completed.
    -- Stationary point found.
 Normal termination of Gaussian 16 at Fri Aug 16 14:02:12 2024.

 ----------------------------------------------------------------------
 # M062X/def2tzvp int=(grid=ultrafine) pop=nbo7 polar prop=efg volume g
 uess=read geom=check
 ----------------------------------------------------------------------

 ----------
 pyrmd2.xyz
 ----------
 Structure from the checkpoint file:  "pyrmd2_conf-2.chk"
 Charge =  0 Multiplicity = 1

 SCF Done:  E(RM062X) =  -1453.87323459     A.U. after   12 cycles

  Exact polarizability:     180.519       0.001     184.613       3.825      -0.001     117.450
 Approx polarizability:     203.793       0.002     252.024       2.195      -0.001     167.962

 Summary of Natural Population Analysis:

                                     Natural Population
             Natural    ---------------------------------------------
  Atom No    Charge        Core      Valence    Rydberg      Total
 --------------------------------------------------------------------
   Cl  1    0.02494      9.99998     6.95850    0.01658    16.97506
    C  2    0.23394      1.99999     3.73528    0.03079     5.76606
    C  3   -0.33662      1.99999     4.31697    0.01966     6.33662
    C  4    0.23394      1.99999     3.73528    0.03079     5.76606
   Cl  5    0.02494      9.99998     6.95850    0.01658    16.97506
    N  6   -0.46907      1.99999     5.43391    0.03516     7.46907
    C  7    0.45993      1.99999     3.51551    0.02458     5.54007
    C  8   -0.45936      1.99999     4.44555    0.01381     6.45936
    C  9   -0.01553      1.99999     3.99892    0.01662     6.01553
    C 10   -0.20937      1.99999     4.19302    0.01636     6.20937
    C 11   -0.20482      1.99999     4.18840    0.01643     6.20482
    C 12   -0.21478      1.99999     4.19840    0.01639     6.21478
    C 13   -0.20482      1.99999     4.18840    0.01643     6.20482
    C 14   -0.20937      1.99999     4.19301    0.01636     6.20937
    N 15   -0.46907      1.99999     5.43391    0.03516     7.46907
    H 16    0.25601      0.00000     0.74279    0.00120     0.74399
    H 17    0.23668      0.00000     0.76182    0.00150     0.76332
    H 18    0.23668      0.00000     0.76182    0.00150     0.76332
    H 19    0.21960      0.00000     0.77898    0.00142     0.78040
    H 20    0.21565      0.00000     0.78318    0.00118     0.78435
    H 21    0.21526      0.00000     0.78363    0.00111     0.78474
    H 22    0.21565      0.00000     0.78318    0.00118     0.78435
    H 23    0.21960      0.00000     0.77898    0.00142     0.78040
 ====================================================================
 * Total *  0.00000     45.99986    75.66795    0.33220   122.00000

 Normal termination of Gaussian 16 at Fri Aug 16 14:10:56 2024.
 Gaussian 16:  ES64L-G16RevC.01  3-Jul-2019

 --------------------------------------------------------------------
 # M062X/def2tzvp int=(grid=ultrafine) nmr=giao guess=read geom=check
 --------------------------------------------------------------------

 ----------
 pyrmd2.xyz
 ----------
 Structure from the checkpoint file:  "pyrmd2_conf-2.chk"
 Charge =  0 Multiplicity = 1

                         Standard orientation:
 ---------------------------------------------------------------------
 Center     Atomic      Atomic             Coordinates (Angstroms)
 Number     Number       Type             X           Y           Z
 ---------------------------------------------------------------------
      1         17           0       -2.600944   -2.711764    0.464751
      2          6           0       -1.900281   -1.168378    0.028967
      3          6           0       -2.540677    0.000008    0.435607
      4          6           0       -1.900270    1.168393    0.028982
      5         17           0       -2.600917    2.711781    0.464784
      6          7           0       -0.782271    1.192547   -0.676655
      7          6           0       -0.259554    0.000006   -1.002497
      8          6           0        1.055992    0.000003   -1.737596
      9          6           0        2.199648   -0.000007   -0.737715
     10          6           0        2.711785   -1.206437   -0.249616
     11          6           0        3.732137   -1.206915    0.700746
     12          6           0        4.245876   -0.000020    1.177008
     13          6           0        3.732216    1.206881    0.700678
     14          6           0        2.711863    1.206415   -0.249684
     15          7           0       -0.782283   -1.192534   -0.676669
     16          1           0       -3.454458    0.000009    1.011939
     17          1           0        1.102410    0.890545   -2.367947
     18          1           0        1.102401   -0.890535   -2.367955
     19          1           0        2.303399   -2.144753   -0.613181
     20          1           0        4.125849   -2.149550    1.068651
     21          1           0        5.041982   -0.000026    1.915164
     22          1           0        4.125990    2.149511    1.068530
     23          1           0        2.303539    2.144738   -0.613302
 ---------------------------------------------------------------------

 SCF Done:  E(RM062X) =  -1453.87323459     A.U. after    1 cycles

      1  Cl   Isotropic =   574.1911   Anisotropy =   615.7787

      2  C    Isotropic =    -8.6184   Anisotropy =   147.9296

      3  C    Isotropic =    47.4841   Anisotropy =   141.1224

      4  C    Isotropic =    -8.6186   Anisotropy =   147.9297

      5  Cl   Isotropic =   574.1912   Anisotropy =   615.7781

      6  N    Isotropic =   -94.8905   Anisotropy =   487.8933

      7  C    Isotropic =   -13.1878   Anisotropy =   185.2904

      8  C    Isotropic =   133.4470   Anisotropy =    19.8523

      9  C    Isotropic =    23.7578   Anisotropy =   220.1163

     10  C    Isotropic =    33.8958   Anisotropy =   201.4396

     11  C    Isotropic =    34.5995   Anisotropy =   216.2885

     12  C    Isotropic =    35.6312   Anisotropy =   215.5878

     13  C    Isotropic =    34.5995   Anisotropy =   216.2885

     14  C    Isotropic =    33.8956   Anisotropy =   201.4369

     15  N    Isotropic =   -94.8897   Anisotropy =   487.8917

     16  H    Isotropic =    24.2321   Anisotropy =    10.9545

     17  H    Isotropic =    27.5470   Anisotropy =     5.0007

     18  H    Isotropic =    27.5469   Anisotropy =     5.0007

     19  H    Isotropic =    23.4499   Anisotropy =     8.6903

     20  H    Isotropic =    23.8107   Anisotropy =     6.3468

     21  H    Isotropic =    23.8613   Anisotropy =     5.6734

     22  H    Isotropic =    23.8107   Anisotropy =     6.3467

     23  H    Isotropic =    23.4500   Anisotropy =     8.6902

 The electronic state is 1-A.
 Alpha  occ. eigenvalues -- -102.66545-102.66545 -14.78239 -14.78238 -10.67339
 Alpha  occ. eigenvalues --  -10.67339 -10.64916 -10.58859 -10.56005 -10.55843
 Alpha  occ. eigenvalues --  -10.54669 -10.54651 -10.54552 -10.54540 -10.54511
 Alpha  occ. eigenvalues --   -9.82810  -9.82810  -7.55005  -7.55005  -7.54499
 Alpha  occ. eigenvalues --   -7.54499  -7.54458  -7.54458  -1.13992  -1.04886
 Alpha  occ. eigenvalues --   -0.99102  -0.96631  -0.95043  -0.90533  -0.87422
 Alpha  occ. eigenvalues --   -0.84541  -0.81323  -0.73412  -0.73358  -0.69292
 Alpha  occ. eigenvalues --   -0.66990  -0.63610  -0.60399  -0.59251  -0.55959
 Alpha  occ. eigenvalues --   -0.54883  -0.53597  -0.52870  -0.50984  -0.49918
 Alpha  occ. eigenvalues --   -0.49033  -0.48411  -0.46615  -0.45832  -0.43861
 Alpha  occ. eigenvalues --   -0.42700  -0.41014  -0.40493  -0.40304  -0.39628
 Alpha  occ. eigenvalues --   -0.39593  -0.36777  -0.35529  -0.34360  -0.31130
 Alpha  occ. eigenvalues --   -0.30477
 Alpha virt. eigenvalues --   -0.03140  -0.02755   0.01790   0.02089   0.03990
 Alpha virt. eigenvalues --    0.07512   0.08287   0.08685   0.10452   0.10454
 Alpha virt. eigenvalues --    0.11408   0.12698   0.12968   0.14149   0.14595

 Mulliken charges:
               1
     1  Cl  -0.047426
     2  C    0.144340
     3  C   -0.242777
     4  C    0.144340
     5  Cl  -0.047426
     6  N   -0.230137
     7  C    0.309910
     8  C   -0.426220
     9  C    0.110335
    10  C   -0.185556
    11  C   -0.132683
    12  C   -0.152775
    13  C   -0.132684
    14  C   -0.185552
    15  N   -0.230140
    16  H    0.180173
    17  H    0.187299
    18  H    0.187301
    19  H    0.157703
    20  H    0.144870
    21  H    0.144535
    22  H    0.144870
    23  H    0.157699
 Sum of Mulliken charges =  -0.00000

 Dipole moment (field-independent basis, Debye):
    X=              0.0342    Y=             -0.0000    Z=              0.2790  Tot=              0.2811
 Quadrupole moment (field-independent basis, Debye-Ang):
   XX=            -94.1170   YY=           -101.6433   ZZ=            -98.0897
   XY=              0.0002   XZ=              1.2453   YZ=             -0.0003

 Normal termination of Gaussian 16 at Fri Aug 16 14:13:49 2024.
