 Gaussian 16, Revision C.01,

 ----------------------------------------------------------------------
 # B3LYP/6-31G(d,p) symmetry=loose empiricaldispersion=GD3BJ int=(grid=
 ultrafine) opt freq=noraman
 ----------------------------------------------------------------------

 ----------
 pyrmd4.xyz
 ----------
 Symbolic Z-matrix:
 Charge =  0 Multiplicity = 1

 SCF Done:  E(RB3LYP) =  -855.507733371     A.U. after   16 cycles
 SCF Done:  E(RB3LYP) =  -855.510865147     A.U. after   13 cycles
 SCF Done:  E(RB3LYP) =  -855.511133079     A.U. after   12 cycles
 SCF Done:  E(RB3LYP) =  -855.511157900     A.U. after   10 cycles
 SCF Done:  E(RB3LYP) =  -855.511160277     A.U. after    9 cycles
 SCF Done:  E(RB3LYP) =  -855.511160955     A.U. after    8 cycles
 Optimization completed.
    -- Stationary point found.
 Normal termination of Gaussian 16 at Wed Aug 14 20:25:24 2024.

 ----------------------------------------------------------------------
 #N Geom=AllCheck Guess=TCheck SCRF=Check GenChk RB3LYP/6-31G(d,p) Freq
 ----------------------------------------------------------------------

 Structure from the checkpoint file:  "pyrmd4_conf-1.chk"
 ----------
 pyrmd4.xyz
 ----------
 Charge =  0 Multiplicity = 1

 SCF Done:  E(RB3LYP) =  -855.511160955     A.U. after    1 cycles

                      1                      2                      3
                      A                      A                      A
 Frequencies --     61.8523               123.4000               136.3663
 Red. masses --      1.0318                 8.4694                11.8157
 Frc consts  --      0.0023                 0.0760                 0.1295
 IR Inten    --      0.4786                 0.4741                 2.2797

                      4                      5                      6
                      A                      A                      A
 Frequencies --    158.6960               210.6440               242.1013
 Red. masses --      4.7387                 5.8655                 4.5788
 Frc consts  --      0.0703                 0.1533                 0.1581
 IR Inten    --      1.2424                 0.2695                 0.4082

                      7                      8                      9
                      A                      A                      A
 Frequencies --    388.3644               399.4192               417.3138
 Red. masses --      4.9424                 7.8654                11.7002
 Frc consts  --      0.4392                 0.7393                 1.2005
 IR Inten    --      3.8221                11.6665                 4.0915

                     10                     11                     12
                      A                      A                      A
 Frequencies --    509.6292               553.9884               581.4138
 Red. masses --     10.1397                 5.3698                 4.6066
 Frc consts  --      1.5516                 0.9710                 0.9175
 IR Inten    --      1.5295                 6.8689                 0.2014

                     13                     14                     15
                      A                      A                      A
 Frequencies --    611.8996               669.3156               800.3855
 Red. masses --      7.9841                 5.7340                 7.2916
 Frc consts  --      1.7613                 1.5135                 2.7522
 IR Inten    --      2.8750                 0.0273                 5.9279

                     16                     17                     18
                      A                      A                      A
 Frequencies --    876.0106               883.0499               964.5987
 Red. masses --      9.7492                 1.3300                 4.2490
 Frc consts  --      4.4080                 0.6110                 2.3293
 IR Inten    --    109.9611                10.4975                11.4272

                     19                     20                     21
                      A                      A                      A
 Frequencies --   1004.5165              1041.9698              1064.1527
 Red. masses --      8.3915                 1.7301                 1.6281
 Frc consts  --      4.9889                 1.1067                 1.0862
 IR Inten    --      1.3873                 7.8310                 7.1323

                     22                     23                     24
                      A                      A                      A
 Frequencies --   1162.1665              1279.1302              1331.3538
 Red. masses --      1.5825                10.0196                 4.4470
 Frc consts  --      1.2593                 9.6590                 4.6441
 IR Inten    --     37.1453                 1.2183                60.9483

                     25                     26                     27
                      A                      A                      A
 Frequencies --   1384.1843              1417.7821              1445.8478
 Red. masses --      8.9443                 1.3893                 3.5279
 Frc consts  --     10.0969                 1.6453                 4.3452
 IR Inten    --     87.2475                 1.3760                 1.9245

                     28                     29                     30
                      A                      A                      A
 Frequencies --   1485.3808              1492.6130              1587.3609
 Red. masses --      1.0439                 1.1366                 6.6332
 Frc consts  --      1.3570                 1.4919                 9.8475
 IR Inten    --      7.4453                81.3235               183.5813

                     31                     32                     33
                      A                      A                      A
 Frequencies --   1608.3721              2374.6017              3061.4515
 Red. masses --      7.4414                12.6869                 1.0361
 Frc consts  --     11.3417                42.1491                 5.7212
 IR Inten    --    285.4012                 2.4103                 3.5761

                     34                     35                     36
                      A                      A                      A
 Frequencies --   3127.4731              3154.9421              3240.0568
 Red. masses --      1.1006                 1.1041                 1.0938
 Frc consts  --      6.3427                 6.4750                 6.7656
 IR Inten    --      3.5978                10.6284                 0.0905

 - Thermochemistry -
 -------------------
 Temperature   298.150 Kelvin.  Pressure   1.00000 Atm.
 Atom     1 has atomic number 17 and mass  34.96885

 Molecular mass:   153.00937 amu.
 Principal axes and moments of inertia in atomic units:
                                 1                 2                 3
     Eigenvalues --         1252.050496       1934.756655       3175.669260
           X                   0.999999          0.001437         -0.000000
           Y                  -0.001437          0.999999         -0.000005
           Z                   0.000000          0.000005          1.000000
 This molecule is an asymmetric top.
 Rotational symmetry number  1.
 Warning -- assumption of classical behavior for rotation
           may cause significant error
 Rotational temperatures (Kelvin)      0.06918     0.04477     0.02727
 Rotational constants (GHZ):           1.44143     0.93280     0.56830
 Zero-point vibrational energy     244348.1 (Joules/Mol)
                                   58.40059 (Kcal/Mol)
 Warning -- explicit consideration of  13 degrees of freedom as
           vibrations may cause significant error
 Vibrational temperatures:     88.99   177.55   196.20   228.33   303.07
          (Kelvin)            348.33   558.77   574.68   600.42   733.24
                              797.07   836.52   880.39   963.00  1151.58
                             1260.38  1270.51  1387.84  1445.28  1499.16
                             1531.08  1672.10  1840.38  1915.52  1991.53
                             2039.87  2080.25  2137.13  2147.54  2283.86
                             2314.09  3416.52  4404.75  4499.74  4539.26
                             4661.72

 Zero-point correction=                           0.093067 (Hartree/Particle)
 Thermal correction to Energy=                    0.101929
 Thermal correction to Enthalpy=                  0.102873
 Thermal correction to Gibbs Free Energy=         0.057997
 Sum of electronic and zero-point Energies=           -855.418094
 Sum of electronic and thermal Energies=              -855.409232
 Sum of electronic and thermal Enthalpies=            -855.408288
 Sum of electronic and thermal Free Energies=         -855.453164

                     E (Thermal)             CV                S
                      KCal/Mol        Cal/Mol-Kelvin    Cal/Mol-Kelvin
 Total                   63.961             31.232             94.449
 Electronic               0.000              0.000              0.000
 Translational            0.889              2.981             40.986
 Rotational               0.889              2.981             30.421
 Vibrational             62.184             25.271             23.042
 Vibration     1          0.597              1.973              4.397
 Vibration     2          0.610              1.930              3.046
 Vibration     3          0.614              1.917              2.854
 Vibration     4          0.621              1.893              2.565
 Vibration     5          0.643              1.825              2.038
 Vibration     6          0.658              1.776              1.787
 Vibration     7          0.757              1.495              1.006
 Vibration     8          0.765              1.471              0.965
 Vibration     9          0.780              1.433              0.901
 Vibration    10          0.865              1.229              0.634
 Vibration    11          0.909              1.131              0.536
 Vibration    12          0.938              1.072              0.483
 Vibration    13          0.971              1.007              0.430

 Optimization completed.
    -- Stationary point found.
 Normal termination of Gaussian 16 at Wed Aug 14 20:25:56 2024.

 ----------------------------------------------------------------------
 # M062X/def2tzvp int=(grid=ultrafine) pop=nbo7 polar prop=efg volume g
 uess=read geom=check
 ----------------------------------------------------------------------

 ----------
 pyrmd4.xyz
 ----------
 Structure from the checkpoint file:  "pyrmd4_conf-1.chk"
 Charge =  0 Multiplicity = 1

 SCF Done:  E(RM062X) =  -855.470118999     A.U. after   12 cycles

  Exact polarizability:     128.267      -4.479     113.773      -0.001       0.000      55.560
 Approx polarizability:     161.030      -7.453     140.998      -0.001       0.001      76.863

 Summary of Natural Population Analysis:

                                     Natural Population
             Natural    ---------------------------------------------
  Atom No    Charge        Core      Valence    Rydberg      Total
 --------------------------------------------------------------------
   Cl  1    0.03602      9.99998     6.94710    0.01690    16.96398
    C  2    0.22211      1.99999     3.74735    0.03055     5.77789
    N  3   -0.41476      1.99999     5.38081    0.03396     7.41476
    C  4    0.30315      1.99999     3.67125    0.02561     5.69685
    C  5    0.23950      1.99999     3.72918    0.03133     5.76050
    N  6   -0.24888      1.99999     5.22293    0.02596     7.24888
    N  7   -0.40871      1.99999     5.37899    0.02973     7.40871
    C  8    0.26308      1.99999     3.71853    0.01840     5.73692
    C  9   -0.64638      1.99999     4.63626    0.01013     6.64638
    C 10   -0.29715      1.99999     4.27968    0.01748     6.29715
    H 11    0.24425      0.00000     0.75466    0.00109     0.75575
    H 12    0.21962      0.00000     0.77943    0.00095     0.78038
    H 13    0.24425      0.00000     0.75466    0.00109     0.75575
    H 14    0.24389      0.00000     0.75489    0.00122     0.75611
 ====================================================================
 * Total *  0.00000     27.99990    49.75571    0.24438    78.00000

 Normal termination of Gaussian 16 at Wed Aug 14 20:28:34 2024.
 Gaussian 16:  ES64L-G16RevC.01  3-Jul-2019

 --------------------------------------------------------------------
 # M062X/def2tzvp int=(grid=ultrafine) nmr=giao guess=read geom=check
 --------------------------------------------------------------------

 ----------
 pyrmd4.xyz
 ----------
 Structure from the checkpoint file:  "pyrmd4_conf-1.chk"
 Charge =  0 Multiplicity = 1

                         Standard orientation:
 ---------------------------------------------------------------------
 Center     Atomic      Atomic             Coordinates (Angstroms)
 Number     Number       Type             X           Y           Z
 ---------------------------------------------------------------------
      1         17           0       -2.661894   -1.072306   -0.000074
      2          6           0       -1.089239   -0.312421   -0.000004
      3          7           0       -0.035668   -1.110187    0.000193
      4          6           0        1.149429   -0.479905    0.000498
      5          6           0        2.319604   -1.332428    0.000128
      6          7           0        3.260001   -2.012655   -0.000450
      7          7           0        1.373290    0.833277    0.000176
      8          6           0        0.284671    1.625344   -0.000020
      9          6           0        0.526275    3.105750   -0.000127
     10          6           0       -1.001306    1.079578   -0.000062
     11          1           0        1.113777    3.385105    0.879522
     12          1           0       -0.408387    3.669377   -0.000321
     13          1           0        1.114042    3.384926   -0.879653
     14          1           0       -1.887191    1.701236   -0.000194
 ---------------------------------------------------------------------

 SCF Done:  E(RM062X) =  -855.470118999     A.U. after    1 cycles

      1  Cl   Isotropic =   571.2500   Anisotropy =   606.6040

      2  C    Isotropic =    -9.1886   Anisotropy =   158.0265

      3  N    Isotropic =  -106.6615   Anisotropy =   526.1185

      4  C    Isotropic =    17.4037   Anisotropy =   140.8689

      5  C    Isotropic =    52.9864   Anisotropy =   362.6509

      6  N    Isotropic =   -85.0073   Anisotropy =   515.3074

      7  N    Isotropic =  -120.8592   Anisotropy =   582.0747

      8  C    Isotropic =   -13.3928   Anisotropy =   239.3707

      9  C    Isotropic =   159.7497   Anisotropy =    42.1883

     10  C    Isotropic =    42.7374   Anisotropy =   157.3210

     11  H    Isotropic =    29.1651   Anisotropy =     7.5025

     12  H    Isotropic =    29.6023   Anisotropy =     6.5725

     13  H    Isotropic =    29.1651   Anisotropy =     7.5021

     14  H    Isotropic =    23.9989   Anisotropy =    10.9570

 The electronic state is 1-A.
 Alpha  occ. eigenvalues -- -102.67555 -14.80269 -14.79663 -14.77571 -10.68526
 Alpha  occ. eigenvalues --  -10.68137 -10.64260 -10.59876 -10.59435 -10.56860
 Alpha  occ. eigenvalues --   -9.83816  -7.56013  -7.55504  -7.55460  -1.15349
 Alpha  occ. eigenvalues --   -1.05578  -1.02851  -0.98542  -0.92780  -0.85363
 Alpha  occ. eigenvalues --   -0.81525  -0.73495  -0.65724  -0.64608  -0.59568
 Alpha  occ. eigenvalues --   -0.56903  -0.53149  -0.51462  -0.50760  -0.48868
 Alpha  occ. eigenvalues --   -0.46853  -0.46241  -0.42403  -0.42381  -0.42220
 Alpha  occ. eigenvalues --   -0.40965  -0.38752  -0.36759  -0.35781
 Alpha virt. eigenvalues --   -0.06031  -0.04371   0.04308   0.05661   0.06762
 Alpha virt. eigenvalues --    0.08545   0.08603   0.09983   0.12457   0.13297
 Alpha virt. eigenvalues --    0.14001   0.14824   0.17391   0.19050   0.19300

 Mulliken charges:
               1
     1  Cl  -0.034002
     2  C    0.147159
     3  N   -0.213191
     4  C    0.310047
     5  C   -0.185173
     6  N    0.019607
     7  N   -0.243824
     8  C    0.203221
     9  C   -0.447243
    10  C   -0.219694
    11  H    0.172385
    12  H    0.143850
    13  H    0.172391
    14  H    0.174468
 Sum of Mulliken charges =  -0.00000

 Dipole moment (field-independent basis, Debye):
    X=             -3.5742    Y=              5.0120    Z=              0.0008  Tot=              6.1559
 Quadrupole moment (field-independent basis, Debye-Ang):
   XX=            -75.7519   YY=            -62.6984   ZZ=            -63.1657
   XY=              5.1460   XZ=              0.0032   YZ=             -0.0023

 Normal termination of Gaussian 16 at Wed Aug 14 20:29:36 2024.
