 Gaussian 16, Revision C.01,

 ----------------------------------------------------------------------
 # B3LYP/6-31G(d,p) symmetry=loose empiricaldispersion=GD3BJ int=(grid=
 ultrafine) opt=calcfc freq=noraman
 ----------------------------------------------------------------------

 ---------
 pyrz2.xyz
 ---------
 Symbolic Z-matrix:
 Charge =  0 Multiplicity = 1

 SCF Done:  E(RB3LYP) =  -1046.52124716     A.U. after   15 cycles
 SCF Done:  E(RB3LYP) =  -1046.53073329     A.U. after   14 cycles
 SCF Done:  E(RB3LYP) =  -1046.52961623     A.U. after   14 cycles
 SCF Done:  E(RB3LYP) =  -1046.53151770     A.U. after   12 cycles
 SCF Done:  E(RB3LYP) =  -1046.53158406     A.U. after   11 cycles
 SCF Done:  E(RB3LYP) =  -1046.53156006     A.U. after   10 cycles
 SCF Done:  E(RB3LYP) =  -1046.53156273     A.U. after   11 cycles
 SCF Done:  E(RB3LYP) =  -1046.53159375     A.U. after   11 cycles
 SCF Done:  E(RB3LYP) =  -1046.53160142     A.U. after    9 cycles
 SCF Done:  E(RB3LYP) =  -1046.53160590     A.U. after   10 cycles
 SCF Done:  E(RB3LYP) =  -1046.53160680     A.U. after    8 cycles
 SCF Done:  E(RB3LYP) =  -1046.53160745     A.U. after    9 cycles
 SCF Done:  E(RB3LYP) =  -1046.53160764     A.U. after    8 cycles
 SCF Done:  E(RB3LYP) =  -1046.53160769     A.U. after    8 cycles
 SCF Done:  E(RB3LYP) =  -1046.53160770     A.U. after    8 cycles
 Optimization completed.
    -- Stationary point found.
 Normal termination of Gaussian 16 at Fri Aug 16 13:57:35 2024.

 ----------------------------------------------------------------------
 #N Geom=AllCheck Guess=TCheck SCRF=Check GenChk RB3LYP/6-31G(d,p) Freq
 ----------------------------------------------------------------------

 Structure from the checkpoint file:  "pyrz2_conf-2.chk"
 ---------
 pyrz2.xyz
 ---------
 Charge =  0 Multiplicity = 1

 SCF Done:  E(RB3LYP) =  -1046.53160770     A.U. after    1 cycles

                      1                      2                      3
                      A                      A                      A
 Frequencies --     24.6292                47.9750               112.7422
 Red. masses --      7.1079                 6.5133                 2.7309
 Frc consts  --      0.0025                 0.0088                 0.0205
 IR Inten    --     14.7581                 0.4657                 2.5517

                      4                      5                      6
                      A                      A                      A
 Frequencies --    132.5206               147.6696               153.0321
 Red. masses --      1.1698                 1.0678                 4.9044
 Frc consts  --      0.0121                 0.0137                 0.0677
 IR Inten    --     16.5019                 2.2514                 1.8151

                      7                      8                      9
                      A                      A                      A
 Frequencies --    168.7916               179.9544               244.0153
 Red. masses --      1.4984                 3.7073                 4.7152
 Frc consts  --      0.0252                 0.0707                 0.1654
 IR Inten    --    143.6409                 2.2985                 0.6573

                     10                     11                     12
                      A                      A                      A
 Frequencies --    254.5329               286.7265               314.5823
 Red. masses --      3.3799                 6.0895                 5.2157
 Frc consts  --      0.1290                 0.2950                 0.3041
 IR Inten    --     40.8671                 2.6483                23.6259

                     13                     14                     15
                      A                      A                      A
 Frequencies --    354.6659               375.5482               399.8281
 Red. masses --      3.6402                 5.2600                 6.2718
 Frc consts  --      0.2698                 0.4371                 0.5907
 IR Inten    --      7.2202                 0.7743                 7.4148

                     16                     17                     18
                      A                      A                      A
 Frequencies --    487.7006               501.2404               514.5322
 Red. masses --     10.9289                 7.8952                 5.7438
 Frc consts  --      1.5316                 1.1687                 0.8959
 IR Inten    --     24.0004                 8.3480                 2.2624

                     19                     20                     21
                      A                      A                      A
 Frequencies --    577.9181               591.9730               670.0040
 Red. masses --      1.1470                 3.2068                 6.5880
 Frc consts  --      0.2257                 0.6621                 1.7424
 IR Inten    --      1.5901                 1.6986                 0.2721

                     22                     23                     24
                      A                      A                      A
 Frequencies --    699.1751               734.4228               783.6359
 Red. masses --     10.9158                 8.3369                 5.6690
 Frc consts  --      3.1440                 2.6494                 2.0511
 IR Inten    --      0.4345                 1.4556                 6.8031

                     25                     26                     27
                      A                      A                      A
 Frequencies --    793.0004               835.6708               979.4019
 Red. masses --     11.3459                 4.8856                 4.6142
 Frc consts  --      4.2037                 2.0102                 2.6078
 IR Inten    --      9.4814                 4.6652                25.5334

                     28                     29                     30
                      A                      A                      A
 Frequencies --   1015.0036              1059.6672              1060.2357
 Red. masses --      1.9957                 6.7736                 1.4925
 Frc consts  --      1.2114                 4.4813                 0.9885
 IR Inten    --    164.9174                 4.6327                 1.4567

                     31                     32                     33
                      A                      A                      A
 Frequencies --   1099.1898              1156.9812              1179.8971
 Red. masses --      1.8295                 5.3459                 1.2732
 Frc consts  --      1.3023                 4.2162                 1.0444
 IR Inten    --     20.5008               472.0819                 0.8175

                     34                     35                     36
                      A                      A                      A
 Frequencies --   1213.0788              1238.6370              1294.7365
 Red. masses --      1.6528                 4.6091                 8.0039
 Frc consts  --      1.4330                 4.1664                 7.9053
 IR Inten    --    121.6671               192.9151                24.9919

                     37                     38                     39
                      A                      A                      A
 Frequencies --   1373.9531              1405.4096              1424.4971
 Red. masses --      5.3645                 5.1437                 1.3844
 Frc consts  --      5.9666                 5.9860                 1.6552
 IR Inten    --     42.4344                43.0441                 2.4668

                     40                     41                     42
                      A                      A                      A
 Frequencies --   1474.7591              1492.6822              1492.7308
 Red. masses --      1.2498                 1.0472                 1.1735
 Frc consts  --      1.6015                 1.3747                 1.5407
 IR Inten    --     12.2683                 6.7015                23.0975

                     43                     44                     45
                      A                      A                      A
 Frequencies --   1495.0835              1508.2229              1516.2405
 Red. masses --      1.0433                 1.3754                 1.6583
 Frc consts  --      1.3740                 1.8433                 2.2462
 IR Inten    --      7.1605               104.8299                58.0337

                     46                     47                     48
                      A                      A                      A
 Frequencies --   1555.9982              1616.5300              1651.8065
 Red. masses --      4.0032                 3.1042                 3.0121
 Frc consts  --      5.7106                 4.7794                 4.8421
 IR Inten    --     53.4711                94.8171               446.5932

                     49                     50                     51
                      A                      A                      A
 Frequencies --   1824.9519              3052.4310              3070.5744
 Red. masses --     11.8707                 1.0378                 1.0289
 Frc consts  --     23.2932                 5.6971                 5.7159
 IR Inten    --    258.0586                15.3661                38.0042

                     52                     53                     54
                      A                      A                      A
 Frequencies --   3108.8555              3152.1905              3163.7628
 Red. masses --      1.1008                 1.1073                 1.1016
 Frc consts  --      6.2682                 6.4825                 6.4963
 IR Inten    --     11.4900                16.2925                 4.4689

                     55                     56                     57
                      A                      A                      A
 Frequencies --   3176.4230              3614.2436              3760.9625
 Red. masses --      1.1080                 1.0434                 1.1071
 Frc consts  --      6.5866                 8.0301                 9.2263
 IR Inten    --     14.6391               114.7145               116.6406

 - Thermochemistry -
 -------------------
 Temperature   298.150 Kelvin.  Pressure   1.00000 Atm.
 Atom     1 has atomic number 17 and mass  34.96885

 Molecular mass:   201.03050 amu.
 Principal axes and moments of inertia in atomic units:
                                 1                 2                 3
     Eigenvalues --         1128.588421       4525.075751       5630.869831
           X                   0.999575          0.029164         -0.000320
           Y                  -0.029164          0.999575         -0.000259
           Z                   0.000313          0.000268          1.000000
 This molecule is an asymmetric top.
 Rotational symmetry number  1.
 Warning -- assumption of classical behavior for rotation
           may cause significant error
 Rotational temperatures (Kelvin)      0.07675     0.01914     0.01538
 Rotational constants (GHZ):           1.59911     0.39883     0.32051
 Zero-point vibrational energy     404431.2 (Joules/Mol)
                                   96.66139 (Kcal/Mol)
 Warning -- explicit consideration of  20 degrees of freedom as
           vibrations may cause significant error
 Vibrational temperatures:     35.44    69.03   162.21   190.67   212.46
          (Kelvin)            220.18   242.85   258.91   351.08   366.22
                              412.54   452.61   510.29   540.33   575.26
                              701.69   721.17   740.30   831.50   851.72
                              963.99  1005.96  1056.67  1127.48  1140.95
                             1202.34  1409.14  1460.36  1524.62  1525.44
                             1581.49  1664.64  1697.61  1745.35  1782.12
                             1862.84  1976.81  2022.07  2049.53  2121.85
                             2147.64  2147.71  2151.09  2170.00  2181.53
                             2238.73  2325.83  2376.58  2625.70  4391.77
                             4417.87  4472.95  4535.30  4551.95  4570.16
                             5200.09  5411.19

 Zero-point correction=                           0.154040 (Hartree/Particle)
 Thermal correction to Energy=                    0.167167
 Thermal correction to Enthalpy=                  0.168111
 Thermal correction to Gibbs Free Energy=         0.113203
 Sum of electronic and zero-point Energies=          -1046.377568
 Sum of electronic and thermal Energies=             -1046.364441
 Sum of electronic and thermal Enthalpies=           -1046.363497
 Sum of electronic and thermal Free Energies=        -1046.418405

                     E (Thermal)             CV                S
                      KCal/Mol        Cal/Mol-Kelvin    Cal/Mol-Kelvin
 Total                  104.899             46.661            115.564
 Electronic               0.000              0.000              0.000
 Translational            0.889              2.981             41.799
 Rotational               0.889              2.981             31.731
 Vibrational            103.121             40.699             42.034
 Vibration     1          0.593              1.985              6.221
 Vibration     2          0.595              1.978              4.899
 Vibration     3          0.607              1.939              3.221
 Vibration     4          0.613              1.921              2.909
 Vibration     5          0.617              1.905              2.702
 Vibration     6          0.619              1.899              2.634
 Vibration     7          0.625              1.881              2.449
 Vibration     8          0.629              1.867              2.329
 Vibration     9          0.659              1.773              1.773
 Vibration    10          0.665              1.755              1.699
 Vibration    11          0.684              1.698              1.493
 Vibration    12          0.702              1.646              1.338
 Vibration    13          0.731              1.566              1.145
 Vibration    14          0.746              1.522              1.057
 Vibration    15          0.766              1.470              0.963
 Vibration    16          0.844              1.277              0.690
 Vibration    17          0.857              1.247              0.655
 Vibration    18          0.870              1.218              0.623
 Vibration    19          0.934              1.079              0.489
 Vibration    20          0.949              1.049              0.464

 Optimization completed.
    -- Stationary point found.
 Normal termination of Gaussian 16 at Fri Aug 16 13:59:21 2024.

 ----------------------------------------------------------------------
 # M062X/def2tzvp int=(grid=ultrafine) pop=nbo7 polar prop=efg volume g
 uess=read geom=check
 ----------------------------------------------------------------------

 ---------
 pyrz2.xyz
 ---------
 Structure from the checkpoint file:  "pyrz2_conf-2.chk"
 Charge =  0 Multiplicity = 1

 SCF Done:  E(RM062X) =  -1046.47656061     A.U. after   13 cycles

  Exact polarizability:     186.707       5.507     130.992       0.191       0.062      71.540
 Approx polarizability:     205.772       2.651     174.815       0.396       0.097      99.253

 Summary of Natural Population Analysis:

                                     Natural Population
             Natural    ---------------------------------------------
  Atom No    Charge        Core      Valence    Rydberg      Total
 --------------------------------------------------------------------
   Cl  1    0.00502      9.99998     6.97885    0.01615    16.99498
    C  2    0.21383      1.99999     3.75351    0.03267     5.78617
    C  3    0.10383      1.99999     3.87481    0.02136     5.89617
    C  4   -0.63964      1.99999     4.62952    0.01013     6.63964
    N  5   -0.30782      1.99999     5.27607    0.03176     7.30782
    C  6   -0.04618      1.99999     4.02307    0.02312     6.04618
    C  7    0.75847      1.99999     3.20595    0.03559     5.24153
    O  8   -0.53569      2.00000     6.51547    0.02023     8.53569
    C  9   -0.25964      1.99999     4.24430    0.01534     6.25964
    O 10   -0.55833      2.00000     6.53262    0.02571     8.55833
    C 11    0.38621      1.99999     3.59084    0.02296     5.61379
    N 12   -0.77922      2.00000     5.75921    0.02001     7.77922
    N 13   -0.45811      1.99999     5.41870    0.03942     7.45811
    H 14    0.23985      0.00000     0.75890    0.00126     0.76015
    H 15    0.22742      0.00000     0.77139    0.00119     0.77258
    H 16    0.22739      0.00000     0.77142    0.00119     0.77261
    H 17    0.19019      0.00000     0.80863    0.00118     0.80981
    H 18    0.19688      0.00000     0.80158    0.00153     0.80312
    H 19    0.19669      0.00000     0.80178    0.00153     0.80331
    H 20    0.40859      0.00000     0.58945    0.00197     0.59141
    H 21    0.43027      0.00000     0.56833    0.00139     0.56973
 ====================================================================
 * Total *  0.00000     33.99989    69.67442    0.32569   104.00000

 Normal termination of Gaussian 16 at Fri Aug 16 14:06:06 2024.
 Gaussian 16:  ES64L-G16RevC.01  3-Jul-2019

 --------------------------------------------------------------------
 # M062X/def2tzvp int=(grid=ultrafine) nmr=giao guess=read geom=check
 --------------------------------------------------------------------

 ---------
 pyrz2.xyz
 ---------
 Structure from the checkpoint file:  "pyrz2_conf-2.chk"
 Charge =  0 Multiplicity = 1

                         Standard orientation:
 ---------------------------------------------------------------------
 Center     Atomic      Atomic             Coordinates (Angstroms)
 Number     Number       Type             X           Y           Z
 ---------------------------------------------------------------------
      1         17           0        3.630084   -0.651072    0.011548
      2          6           0        1.902886   -0.314597    0.000115
      3          6           0        1.461459    1.027967   -0.002058
      4          6           0        2.386078    2.210153    0.000482
      5          7           0        0.150285    1.236003   -0.004281
      6          6           0       -0.709609    0.210090   -0.007443
      7          6           0       -2.143691    0.617080   -0.004459
      8          8           0       -2.994036   -0.455589    0.018356
      9          6           0       -4.390537   -0.112995    0.021832
     10          8           0       -2.546854    1.756149   -0.018334
     11          6           0       -0.226594   -1.131662   -0.011426
     12          7           0       -0.999044   -2.240249   -0.031896
     13          7           0        1.107664   -1.353482   -0.004116
     14          1           0        1.787272    3.121363   -0.002674
     15          1           0        3.040835    2.206798   -0.877053
     16          1           0        3.034009    2.208518    0.883097
     17          1           0       -4.926704   -1.061374    0.037972
     18          1           0       -4.643966    0.459320   -0.872813
     19          1           0       -4.633683    0.483720    0.903325
     20          1           0       -0.533983   -3.131866    0.015051
     21          1           0       -2.000377   -2.154848    0.016401
 ---------------------------------------------------------------------

 SCF Done:  E(RM062X) =  -1046.47656061     A.U. after    1 cycles

      1  Cl   Isotropic =   602.8656   Anisotropy =   522.9951

      2  C    Isotropic =     6.1558   Anisotropy =   113.3769

      3  C    Isotropic =    22.8158   Anisotropy =   166.5570

      4  C    Isotropic =   162.2502   Anisotropy =    35.8675

      5  N    Isotropic =  -203.8448   Anisotropy =   695.7530

      6  C    Isotropic =    45.9614   Anisotropy =   131.3304

      7  C    Isotropic =     4.3350   Anisotropy =    85.8796

      8  O    Isotropic =   135.8117   Anisotropy =   181.6845

      9  C    Isotropic =   130.9809   Anisotropy =    70.4010

     10  O    Isotropic =  -160.1021   Anisotropy =   720.5349

     11  C    Isotropic =    12.4072   Anisotropy =   172.5852

     12  N    Isotropic =   166.0296   Anisotropy =    82.9970

     13  N    Isotropic =   -92.5071   Anisotropy =   467.2139

     14  H    Isotropic =    29.1957   Anisotropy =     8.6970

     15  H    Isotropic =    29.3340   Anisotropy =     6.3242

     16  H    Isotropic =    29.3310   Anisotropy =     6.2995

     17  H    Isotropic =    28.2092   Anisotropy =     7.4821

     18  H    Isotropic =    27.9141   Anisotropy =     8.2231

     19  H    Isotropic =    27.9212   Anisotropy =     8.2466

     20  H    Isotropic =    26.8631   Anisotropy =    10.1163

     21  H    Isotropic =    24.9683   Anisotropy =    13.6764

 The electronic state is 1-A.
 Alpha  occ. eigenvalues -- -102.65579 -19.68873 -19.62250 -14.77799 -14.77768
 Alpha  occ. eigenvalues --  -14.77741 -10.68472 -10.65644 -10.65268 -10.60397
 Alpha  occ. eigenvalues --  -10.60147 -10.59833 -10.53877  -9.81837  -7.54024
 Alpha  occ. eigenvalues --   -7.53535  -7.53490  -1.24296  -1.14859  -1.12783
 Alpha  occ. eigenvalues --   -1.05631  -1.02604  -0.95444  -0.89196  -0.84256
 Alpha  occ. eigenvalues --   -0.80234  -0.75615  -0.73436  -0.67977  -0.65420
 Alpha  occ. eigenvalues --   -0.62599  -0.60725  -0.58157  -0.57182  -0.56112
 Alpha  occ. eigenvalues --   -0.54440  -0.52649  -0.51114  -0.49035  -0.47895
 Alpha  occ. eigenvalues --   -0.47406  -0.46231  -0.44803  -0.43731  -0.41888
 Alpha  occ. eigenvalues --   -0.40894  -0.39023  -0.38749  -0.36556  -0.36287
 Alpha  occ. eigenvalues --   -0.33560  -0.28333
 Alpha virt. eigenvalues --   -0.04349   0.00594   0.05813   0.06871   0.07310
 Alpha virt. eigenvalues --    0.08030   0.08322   0.10452   0.10989   0.12570
 Alpha virt. eigenvalues --    0.14712   0.15042   0.15543   0.16276   0.17122

 Mulliken charges:
               1
     1  Cl  -0.057501
     2  C    0.090711
     3  C    0.103191
     4  C   -0.491948
     5  N   -0.174628
     6  C   -0.039860
     7  C    0.371145
     8  O   -0.341276
     9  C   -0.246396
    10  O   -0.306265
    11  C    0.346018
    12  N   -0.515865
    13  N   -0.231298
    14  H    0.166414
    15  H    0.160775
    16  H    0.160626
    17  H    0.140005
    18  H    0.160265
    19  H    0.160123
    20  H    0.261593
    21  H    0.284172
 Sum of Mulliken charges =  -0.00000

 Dipole moment (field-independent basis, Debye):
    X=             -2.0130    Y=             -2.7936    Z=              0.1449  Tot=              3.4464
 Quadrupole moment (field-independent basis, Debye-Ang):
   XX=            -71.0247   YY=            -82.3663   ZZ=            -82.1186
   XY=             13.3925   XZ=             -0.2855   YZ=             -0.2808

 Normal termination of Gaussian 16 at Fri Aug 16 14:08:31 2024.
