 Gaussian 16, Revision C.01,

 ----------------------------------------------------------------------
 # B3LYP/6-31G(d,p) symmetry=loose empiricaldispersion=GD3BJ int=(grid=
 ultrafine) opt freq=noraman
 ----------------------------------------------------------------------

 ----------
 pyrd10.xyz
 ----------
 Symbolic Z-matrix:
 Charge =  0 Multiplicity = 1

 SCF Done:  E(RB3LYP) =  -2937.38883399     A.U. after   14 cycles
 SCF Done:  E(RB3LYP) =  -2937.39118391     A.U. after   14 cycles
 SCF Done:  E(RB3LYP) =  -2937.39125555     A.U. after   13 cycles
 SCF Done:  E(RB3LYP) =  -2937.39170584     A.U. after   12 cycles
 SCF Done:  E(RB3LYP) =  -2937.39207061     A.U. after   12 cycles
 SCF Done:  E(RB3LYP) =  -2937.39210037     A.U. after   11 cycles
 SCF Done:  E(RB3LYP) =  -2937.39210716     A.U. after   10 cycles
 SCF Done:  E(RB3LYP) =  -2937.39211015     A.U. after    9 cycles
 SCF Done:  E(RB3LYP) =  -2937.39211044     A.U. after    8 cycles
 Optimization completed.
    -- Stationary point found.
 Normal termination of Gaussian 16 at Wed Aug 14 18:47:32 2024.

 ----------------------------------------------------------------------
 #N Geom=AllCheck Guess=TCheck SCRF=Check GenChk RB3LYP/6-31G(d,p) Freq
 ----------------------------------------------------------------------

 Structure from the checkpoint file:  "pyrd10_conf-2.chk"
 ----------
 pyrd10.xyz
 ----------
 Charge =  0 Multiplicity = 1

 SCF Done:  E(RB3LYP) =  -2937.39211044     A.U. after    1 cycles

                      1                      2                      3
                      A                      A                      A
 Frequencies --     40.7012                69.8234               116.1089
 Red. masses --      5.6759                 6.7940                 3.4272
 Frc consts  --      0.0055                 0.0195                 0.0272
 IR Inten    --      2.1490                 2.7111                 0.8081

                      4                      5                      6
                      A                      A                      A
 Frequencies --    140.7103               236.6663               306.5001
 Red. masses --      5.1744                 2.6423                 2.6748
 Frc consts  --      0.0604                 0.0872                 0.1480
 IR Inten    --      1.0137                 1.5116                 1.0317

                      7                      8                      9
                      A                      A                      A
 Frequencies --    350.6680               415.1748               423.7577
 Red. masses --      2.4385                 2.7505                 2.8019
 Frc consts  --      0.1767                 0.2793                 0.2964
 IR Inten    --      1.9381                 2.2450                 3.3859

                     10                     11                     12
                      A                      A                      A
 Frequencies --    504.9282               552.9670               614.1311
 Red. masses --      4.3506                 3.4643                 3.7485
 Frc consts  --      0.6535                 0.6241                 0.8330
 IR Inten    --      0.3460                 9.3416                 6.8341

                     13                     14                     15
                      A                      A                      A
 Frequencies --    645.2619               737.4094               765.2603
 Red. masses --      6.7367                 2.0781                 1.7993
 Frc consts  --      1.6526                 0.6658                 0.6208
 IR Inten    --      2.9011                22.3113                 7.4566

                     16                     17                     18
                      A                      A                      A
 Frequencies --    811.9914               835.4031               876.3371
 Red. masses --      2.0197                 1.9450                 2.5076
 Frc consts  --      0.7846                 0.7998                 1.1346
 IR Inten    --     10.0471                12.5176                 3.2288

                     19                     20                     21
                      A                      A                      A
 Frequencies --    950.5438               972.4262               986.2516
 Red. masses --      1.3368                 1.4503                 1.6595
 Frc consts  --      0.7116                 0.8080                 0.9510
 IR Inten    --      0.1895                 1.6330                 0.1610

                     22                     23                     24
                      A                      A                      A
 Frequencies --    993.7689              1011.3939              1046.0748
 Red. masses --      1.6756                 1.3506                 4.0880
 Frc consts  --      0.9750                 0.8140                 2.6357
 IR Inten    --      7.0045                 3.6340                11.3722

                     25                     26                     27
                      A                      A                      A
 Frequencies --   1074.6842              1084.8874              1146.9067
 Red. masses --      2.5657                 2.2386                 1.4860
 Frc consts  --      1.7459                 1.5524                 1.1517
 IR Inten    --      1.2874                 1.1258                 2.9202

                     28                     29                     30
                      A                      A                      A
 Frequencies --   1155.6455              1175.6027              1229.7353
 Red. masses --      1.2023                 1.2072                 1.6831
 Frc consts  --      0.9460                 0.9830                 1.4996
 IR Inten    --      1.7175                 2.8789                 3.4732

                     31                     32                     33
                      A                      A                      A
 Frequencies --   1252.6027              1272.0617              1308.5235
 Red. masses --      1.7124                 1.3535                 1.4028
 Frc consts  --      1.5830                 1.2904                 1.4152
 IR Inten    --      0.9722                27.4505                27.0303

                     34                     35                     36
                      A                      A                      A
 Frequencies --   1319.0327              1369.5992              1382.8045
 Red. masses --      2.9051                 1.4482                 1.2146
 Frc consts  --      2.9779                 1.6005                 1.3684
 IR Inten    --      1.6257                 5.3827                 4.2212

                     37                     38                     39
                      A                      A                      A
 Frequencies --   1395.5916              1472.3901              1482.0876
 Red. masses --      1.4004                 2.2891                 1.0866
 Frc consts  --      1.6071                 2.9239                 1.4062
 IR Inten    --      6.4119                21.7209                 6.1378

                     40                     41                     42
                      A                      A                      A
 Frequencies --   1493.8635              1506.3032              1523.1785
 Red. masses --      1.1198                 1.1049                 2.2416
 Frc consts  --      1.4724                 1.4771                 3.0642
 IR Inten    --      7.7069                10.0264                13.9521

                     43                     44                     45
                      A                      A                      A
 Frequencies --   1628.1854              1650.8766              3030.3677
 Red. masses --      5.1776                 5.6334                 1.0653
 Frc consts  --      8.0870                 9.0459                 5.7639
 IR Inten    --     12.9077                 2.6215                16.6867

                     46                     47                     48
                      A                      A                      A
 Frequencies --   3061.0348              3092.1170              3109.0108
 Red. masses --      1.0617                 1.0966                 1.1032
 Frc consts  --      5.8615                 6.1776                 6.2829
 IR Inten    --     16.9850                23.2272                11.0841

                     49                     50                     51
                      A                      A                      A
 Frequencies --   3121.5301              3143.0178              3166.7854
 Red. masses --      1.0581                 1.0897                 1.0893
 Frc consts  --      6.0747                 6.3422                 6.4363
 IR Inten    --     12.4907                30.2093                19.2877

                     52                     53                     54
                      A                      A                      A
 Frequencies --   3188.6297              3189.1733              3207.3335
 Red. masses --      1.0966                 1.1047                 1.0968
 Frc consts  --      6.5692                 6.6201                 6.6475
 IR Inten    --      7.9807                 1.4740                16.5145

 - Thermochemistry -
 -------------------
 Temperature   298.150 Kelvin.  Pressure   1.00000 Atm.
 Atom     1 has atomic number 35 and mass  78.91834

 Molecular mass:   198.99966 amu.
 Principal axes and moments of inertia in atomic units:
                                 1                 2                 3
     Eigenvalues --          844.734976       3929.319506       4458.076591
           X                   0.999653          0.026063          0.003758
           Y                  -0.026034          0.999633         -0.007480
           Z                  -0.003952          0.007379          0.999965
 This molecule is an asymmetric top.
 Rotational symmetry number  1.
 Warning -- assumption of classical behavior for rotation
           may cause significant error
 Rotational temperatures (Kelvin)      0.10253     0.02204     0.01943
 Rotational constants (GHZ):           2.13646     0.45930     0.40483
 Zero-point vibrational energy     434470.7 (Joules/Mol)
                                  103.84098 (Kcal/Mol)
 Warning -- explicit consideration of  12 degrees of freedom as
           vibrations may cause significant error
 Vibrational temperatures:     58.56   100.46   167.05   202.45   340.51
          (Kelvin)            440.99   504.53   597.34   609.69   726.48
                              795.60   883.60   928.39  1060.97  1101.04
                             1168.27  1201.96  1260.85  1367.62  1399.10
                             1419.00  1429.81  1455.17  1505.07  1546.23
                             1560.91  1650.14  1662.72  1691.43  1769.31
                             1802.22  1830.21  1882.67  1897.79  1970.55
                             1989.55  2007.95  2118.44  2132.39  2149.34
                             2167.23  2191.51  2342.60  2375.24  4360.02
                             4404.15  4448.87  4473.17  4491.19  4522.10
                             4556.30  4587.73  4588.51  4614.64

 Zero-point correction=                           0.165481 (Hartree/Particle)
 Thermal correction to Energy=                    0.174732
 Thermal correction to Enthalpy=                  0.175676
 Thermal correction to Gibbs Free Energy=         0.128871
 Sum of electronic and zero-point Energies=          -2937.226629
 Sum of electronic and thermal Energies=             -2937.217379
 Sum of electronic and thermal Enthalpies=           -2937.216434
 Sum of electronic and thermal Free Energies=        -2937.263239

                     E (Thermal)             CV                S
                      KCal/Mol        Cal/Mol-Kelvin    Cal/Mol-Kelvin
 Total                  109.646             34.398             98.509
 Electronic               0.000              0.000              0.000
 Translational            0.889              2.981             41.769
 Rotational               0.889              2.981             31.071
 Vibrational            107.868             28.437             25.669
 Vibration     1          0.594              1.981              5.225
 Vibration     2          0.598              1.969              4.158
 Vibration     3          0.608              1.936              3.164
 Vibration     4          0.615              1.913              2.794
 Vibration     5          0.656              1.785              1.828
 Vibration     6          0.697              1.661              1.381
 Vibration     7          0.728              1.574              1.163
 Vibration     8          0.779              1.437              0.909
 Vibration     9          0.786              1.419              0.879
 Vibration    10          0.860              1.239              0.646
 Vibration    11          0.908              1.133              0.538
 Vibration    12          0.974              1.002              0.426

 Optimization completed.
    -- Stationary point found.
 Normal termination of Gaussian 16 at Wed Aug 14 18:48:52 2024.

 ----------------------------------------------------------------------
 # M062X/def2tzvp int=(grid=ultrafine) pop=nbo7 polar prop=efg volume g
 uess=read geom=check
 ----------------------------------------------------------------------

 ----------
 pyrd10.xyz
 ----------
 Structure from the checkpoint file:  "pyrd10_conf-2.chk"
 Charge =  0 Multiplicity = 1

 SCF Done:  E(RM062X) =  -2939.79083728     A.U. after   12 cycles

  Exact polarizability:     138.915       1.724     121.869      -9.790       0.346      84.337
 Approx polarizability:     162.184      -3.987     165.420     -18.264       2.531     118.083

 Summary of Natural Population Analysis:

                                     Natural Population
             Natural    ---------------------------------------------
  Atom No    Charge        Core      Valence    Rydberg      Total
 --------------------------------------------------------------------
   Br  1   -0.06453     27.99997     7.05429    0.01027    35.06453
    C  2   -0.39400      1.99999     4.37502    0.01899     6.39400
    C  3   -0.41745      1.99999     4.40405    0.01342     6.41745
    C  4   -0.42638      1.99999     4.41286    0.01353     6.42638
    C  5   -0.06855      1.99999     4.05048    0.01807     6.06855
    C  6    0.02984      1.99999     3.94777    0.02240     5.97016
    N  7   -0.41074      1.99999     5.37902    0.03173     7.41074
    C  8    0.02280      1.99999     3.95486    0.02235     5.97720
    C  9   -0.25180      1.99999     4.23559    0.01622     6.25180
    C 10   -0.18530      1.99999     4.16804    0.01726     6.18530
    H 11    0.22632      0.00000     0.77213    0.00155     0.77368
    H 12    0.22236      0.00000     0.77573    0.00191     0.77764
    H 13    0.21817      0.00000     0.78021    0.00162     0.78183
    H 14    0.21785      0.00000     0.78035    0.00180     0.78215
    H 15    0.22733      0.00000     0.77066    0.00201     0.77267
    H 16    0.22159      0.00000     0.77693    0.00148     0.77841
    H 17    0.18825      0.00000     0.81010    0.00165     0.81175
    H 18    0.19475      0.00000     0.80383    0.00141     0.80525
    H 19    0.22163      0.00000     0.77723    0.00114     0.77837
    H 20    0.22784      0.00000     0.77018    0.00198     0.77216
 ====================================================================
 * Total *  0.00000     45.99990    53.79932    0.20079   100.00000

 Normal termination of Gaussian 16 at Wed Aug 14 18:53:08 2024.
 Gaussian 16:  ES64L-G16RevC.01  3-Jul-2019

 --------------------------------------------------------------------
 # M062X/def2tzvp int=(grid=ultrafine) nmr=giao guess=read geom=check
 --------------------------------------------------------------------

 ----------
 pyrd10.xyz
 ----------
 Structure from the checkpoint file:  "pyrd10_conf-2.chk"
 Charge =  0 Multiplicity = 1

                         Standard orientation:
 ---------------------------------------------------------------------
 Center     Atomic      Atomic             Coordinates (Angstroms)
 Number     Number       Type             X           Y           Z
 ---------------------------------------------------------------------
      1         35           0        2.451907   -0.522981   -0.088303
      2          6           0        1.323883    0.607076    1.094587
      3          6           0        0.714067    1.774580    0.339534
      4          6           0       -0.179598    1.377692   -0.851739
      5          6           0       -1.339957    0.495854   -0.461589
      6          6           0       -2.577429    1.050006   -0.110403
      7          7           0       -3.643859    0.344134    0.278928
      8          6           0       -3.509069   -0.986892    0.332714
      9          6           0       -2.327356   -1.651176    0.005135
     10          6           0       -1.227206   -0.897763   -0.397498
     11          1           0        1.991374    0.932515    1.890615
     12          1           0        0.572161   -0.072551    1.492989
     13          1           0        0.118946    2.343764    1.067188
     14          1           0        1.511778    2.435959   -0.014112
     15          1           0        0.442169    0.869399   -1.594793
     16          1           0       -0.555038    2.294507   -1.318010
     17          1           0       -2.711073    2.131003   -0.154041
     18          1           0       -4.386688   -1.546020    0.650660
     19          1           0       -2.272393   -2.733497    0.062832
     20          1           0       -0.284963   -1.375929   -0.649693
 ---------------------------------------------------------------------

 SCF Done:  E(RM062X) =  -2939.79083728     A.U. after    1 cycles

      1  Br   Isotropic =  2410.4818   Anisotropy =   804.4598

      2  C    Isotropic =   137.6379   Anisotropy =    61.9745

      3  C    Isotropic =   148.8368   Anisotropy =    18.0635

      4  C    Isotropic =   154.3357   Anisotropy =    26.3396

      5  C    Isotropic =    27.5887   Anisotropy =   225.1881

      6  C    Isotropic =    10.0154   Anisotropy =   186.4872

      7  N    Isotropic =  -155.7030   Anisotropy =   679.2844

      8  C    Isotropic =    12.3992   Anisotropy =   205.7088

      9  C    Isotropic =    42.6848   Anisotropy =   203.7599

     10  C    Isotropic =    24.8273   Anisotropy =   224.9763

     11  H    Isotropic =    28.3239   Anisotropy =    11.8268

     12  H    Isotropic =    28.7325   Anisotropy =     7.4202

     13  H    Isotropic =    30.2085   Anisotropy =    10.6422

     14  H    Isotropic =    29.8687   Anisotropy =     9.1138

     15  H    Isotropic =    28.5838   Anisotropy =     4.4746

     16  H    Isotropic =    29.0925   Anisotropy =     9.5213

     17  H    Isotropic =    22.4543   Anisotropy =    10.8207

     18  H    Isotropic =    22.4093   Anisotropy =     7.2087

     19  H    Isotropic =    23.9453   Anisotropy =     7.7418

     20  H    Isotropic =    22.9311   Anisotropy =    11.7165

 The electronic state is 1-A.
 Alpha  occ. eigenvalues -- -485.36642 -63.35136 -57.17075 -57.16845 -57.16843
 Alpha  occ. eigenvalues --  -14.75101 -10.60347 -10.57741 -10.57690 -10.56138
 Alpha  occ. eigenvalues --  -10.56130 -10.56044 -10.55352 -10.55329  -9.01761
 Alpha  occ. eigenvalues --   -6.84140  -6.83301  -6.83294  -2.87507  -2.87207
 Alpha  occ. eigenvalues --   -2.87201  -2.86417  -2.86417  -1.05328  -0.94432
 Alpha  occ. eigenvalues --   -0.90637  -0.87768  -0.83873  -0.77842  -0.71948
 Alpha  occ. eigenvalues --   -0.71006  -0.66789  -0.59922  -0.56992  -0.55962
 Alpha  occ. eigenvalues --   -0.53213  -0.52809  -0.49585  -0.47992  -0.47301
 Alpha  occ. eigenvalues --   -0.45774  -0.45137  -0.43646  -0.41027  -0.40582
 Alpha  occ. eigenvalues --   -0.34678  -0.34271  -0.34240  -0.32488  -0.31278
 Alpha virt. eigenvalues --   -0.00182   0.00944   0.02781   0.06281   0.08667
 Alpha virt. eigenvalues --    0.09344   0.10179   0.10468   0.12167   0.12586
 Alpha virt. eigenvalues --    0.14124   0.14177   0.15655   0.16102   0.17132

 Mulliken charges:
               1
     1  Br  -0.157989
     2  C   -0.249893
     3  C   -0.262352
     4  C   -0.427810
     5  C    0.119887
     6  C   -0.085507
     7  N   -0.220651
     8  C   -0.056515
     9  C   -0.153410
    10  C   -0.189958
    11  H    0.179567
    12  H    0.192800
    13  H    0.157818
    14  H    0.163730
    15  H    0.199876
    16  H    0.166581
    17  H    0.144168
    18  H    0.144252
    19  H    0.144419
    20  H    0.190986
 Sum of Mulliken charges =  -0.00000

 Dipole moment (field-independent basis, Debye):
    X=              0.9944    Y=              0.5430    Z=              0.5283  Tot=              1.2501
 Quadrupole moment (field-independent basis, Debye-Ang):
   XX=            -86.9921   YY=            -66.2770   ZZ=            -72.7271
   XY=              6.4630   XZ=              1.5462   YZ=              0.0422

 Normal termination of Gaussian 16 at Wed Aug 14 18:54:44 2024.
