 Gaussian 16, Revision C.01,

 ----------------------------------------------------------------------
 # B3LYP/6-31G(d,p) symmetry=loose empiricaldispersion=GD3BJ int=(grid=
 ultrafine) opt freq=noraman
 ----------------------------------------------------------------------

 ---------
 pyrd7.xyz
 ---------
 Symbolic Z-matrix:
 Charge =  0 Multiplicity = 1

 SCF Done:  E(RB3LYP) =  -1192.80411315     A.U. after   14 cycles
 SCF Done:  E(RB3LYP) =  -1192.80895749     A.U. after   12 cycles
 SCF Done:  E(RB3LYP) =  -1192.80929773     A.U. after   11 cycles
 SCF Done:  E(RB3LYP) =  -1192.80932772     A.U. after   10 cycles
 SCF Done:  E(RB3LYP) =  -1192.80933429     A.U. after    8 cycles
 SCF Done:  E(RB3LYP) =  -1192.80934084     A.U. after    9 cycles
 SCF Done:  E(RB3LYP) =  -1192.80934896     A.U. after   10 cycles
 SCF Done:  E(RB3LYP) =  -1192.80935343     A.U. after    9 cycles
 SCF Done:  E(RB3LYP) =  -1192.80935604     A.U. after    9 cycles
 SCF Done:  E(RB3LYP) =  -1192.80936389     A.U. after    9 cycles
 SCF Done:  E(RB3LYP) =  -1192.80937513     A.U. after   10 cycles
 SCF Done:  E(RB3LYP) =  -1192.80937821     A.U. after    9 cycles
 SCF Done:  E(RB3LYP) =  -1192.80938507     A.U. after    9 cycles
 SCF Done:  E(RB3LYP) =  -1192.80938916     A.U. after    9 cycles
 SCF Done:  E(RB3LYP) =  -1192.80938995     A.U. after    9 cycles
 SCF Done:  E(RB3LYP) =  -1192.80939000     A.U. after    7 cycles
 Optimization completed.
    -- Stationary point found.
 Normal termination of Gaussian 16 at Wed Aug 14 19:20:33 2024.

 ----------------------------------------------------------------------
 #N Geom=AllCheck Guess=TCheck SCRF=Check GenChk RB3LYP/6-31G(d,p) Freq
 ----------------------------------------------------------------------

 Structure from the checkpoint file:  "pyrd7_conf-1.chk"
 ---------
 pyrd7.xyz
 ---------
 Charge =  0 Multiplicity = 1

 SCF Done:  E(RB3LYP) =  -1192.80939000     A.U. after    1 cycles

                      1                      2                      3
                      A                      A                      A
 Frequencies --     14.7443                16.9175                31.5592
 Red. masses --     17.3686                18.6144                 1.6748
 Frc consts  --      0.0022                 0.0031                 0.0010
 IR Inten    --      0.0169                 0.0339                 1.0197

                      4                      5                      6
                      A                      A                      A
 Frequencies --     40.0011                60.2672                64.8345
 Red. masses --      1.7112                 7.4268                 6.7792
 Frc consts  --      0.0016                 0.0159                 0.0168
 IR Inten    --      0.0815                 0.9117                 0.4035

                      7                      8                      9
                      A                      A                      A
 Frequencies --    109.4274               120.0132               151.1068
 Red. masses --     13.7304                 6.4552                 7.6701
 Frc consts  --      0.0969                 0.0548                 0.1032
 IR Inten    --      1.0320                 0.2914                 0.0341

                     10                     11                     12
                      A                      A                      A
 Frequencies --    192.9041               218.5330               239.1647
 Red. masses --      5.5718                 2.9996                 6.2764
 Frc consts  --      0.1222                 0.0844                 0.2115
 IR Inten    --      0.1981                 0.2346                 0.1907

                     13                     14                     15
                      A                      A                      A
 Frequencies --    261.4279               279.1626               294.4820
 Red. masses --      4.8001                 8.9855                12.0153
 Frc consts  --      0.1933                 0.4126                 0.6139
 IR Inten    --      0.0952                 0.7054                 0.6560

                     16                     17                     18
                      A                      A                      A
 Frequencies --    317.0319               345.4442               359.5772
 Red. masses --      5.4327                 7.7324                 3.9890
 Frc consts  --      0.3217                 0.5437                 0.3039
 IR Inten    --      0.0034                 0.8924                 3.6928

                     19                     20                     21
                      A                      A                      A
 Frequencies --    414.7628               421.2300               446.9212
 Red. masses --      9.6247                 5.7789                 6.1951
 Frc consts  --      0.9755                 0.6041                 0.7291
 IR Inten    --      3.2611                 1.9399                 1.1428

                     22                     23                     24
                      A                      A                      A
 Frequencies --    467.9668               497.1605               518.1301
 Red. masses --      4.0027                12.1937                 8.1532
 Frc consts  --      0.5165                 1.7757                 1.2896
 IR Inten    --      0.4990                 0.2361                 1.4785

                     25                     26                     27
                      A                      A                      A
 Frequencies --    546.2551               554.4425               566.5135
 Red. masses --      5.7805                 6.1546                15.2667
 Frc consts  --      1.0163                 1.1147                 2.8868
 IR Inten    --      1.7986                 1.1269                 0.0053

                     28                     29                     30
                      A                      A                      A
 Frequencies --    620.9912               652.3579               658.6803
 Red. masses --      6.6514                 8.5885                 6.0055
 Frc consts  --      1.5112                 2.1535                 1.5352
 IR Inten    --      1.0960                12.8650                 6.6123

                     31                     32                     33
                      A                      A                      A
 Frequencies --    677.4985               682.3467               714.7915
 Red. masses --      7.8561                12.5362                12.4101
 Frc consts  --      2.1246                 3.4390                 3.7358
 IR Inten    --      1.4608                34.3095                20.0149

                     34                     35                     36
                      A                      A                      A
 Frequencies --    723.6674               736.1854               788.3114
 Red. masses --      2.4322                 2.4262                 9.5566
 Frc consts  --      0.7505                 0.7747                 3.4990
 IR Inten    --     10.9440                10.1266                11.2198

                     37                     38                     39
                      A                      A                      A
 Frequencies --    861.8083               893.7500               914.5858
 Red. masses --     10.2090                 1.4784                 1.6364
 Frc consts  --      4.4674                 0.6958                 0.8065
 IR Inten    --     26.4444                25.6478                23.1225

                     40                     41                     42
                      A                      A                      A
 Frequencies --    933.6261               940.3033               945.5442
 Red. masses --      1.4770                 1.5694                 1.9790
 Frc consts  --      0.7585                 0.8176                 1.0424
 IR Inten    --      1.6918                 1.4619                10.3766

                     43                     44                     45
                      A                      A                      A
 Frequencies --    951.9547               969.9762              1020.6881
 Red. masses --      1.6726                 1.4538                 3.6657
 Frc consts  --      0.8930                 0.8059                 2.2501
 IR Inten    --      0.7786                 0.5637                 0.0556

                     46                     47                     48
                      A                      A                      A
 Frequencies --   1021.3760              1051.1118              1069.2094
 Red. masses --      2.0057                 4.0913                 1.5432
 Frc consts  --      1.2328                 2.6632                 1.0394
 IR Inten    --      4.3640                 9.6628                 4.1942

                     49                     50                     51
                      A                      A                      A
 Frequencies --   1106.8279              1127.7827              1130.9149
 Red. masses --      3.4641                 2.2615                 1.8199
 Frc consts  --      2.5004                 1.6947                 1.3714
 IR Inten    --     45.8678                 0.0574                17.3599

                     52                     53                     54
                      A                      A                      A
 Frequencies --   1193.0767              1195.2318              1201.2940
 Red. masses --     12.7057                12.1220                 2.3266
 Frc consts  --     10.6558                10.2030                 1.9782
 IR Inten    --      2.7454               489.8389                 5.6757

                     55                     56                     57
                      A                      A                      A
 Frequencies --   1216.0051              1222.9092              1233.8967
 Red. masses --      8.6615                 6.2661                 1.7449
 Frc consts  --      7.5459                 5.5213                 1.5653
 IR Inten    --     95.9722               290.1317                 1.4819

                     58                     59                     60
                      A                      A                      A
 Frequencies --   1293.4489              1297.7127              1308.3273
 Red. masses --      3.3077                 3.1184                 2.0463
 Frc consts  --      3.2605                 3.0941                 2.0637
 IR Inten    --    220.3659               355.2562                54.2393

                     61                     62                     63
                      A                      A                      A
 Frequencies --   1315.3133              1355.9005              1375.5102
 Red. masses --      2.5976                 1.6778                 2.5867
 Frc consts  --      2.6478                 1.8174                 2.8835
 IR Inten    --     45.7599                11.0097                14.5721

                     64                     65                     66
                      A                      A                      A
 Frequencies --   1408.5016              1429.4529              1455.4920
 Red. masses --      5.0489                 1.2645                 3.5262
 Frc consts  --      5.9014                 1.5223                 4.4013
 IR Inten    --    193.6044                 1.1428                 8.2928

                     67                     68                     69
                      A                      A                      A
 Frequencies --   1473.6049              1498.8088              1503.0200
 Red. masses --      2.2836                 1.0507                 2.1593
 Frc consts  --      2.9217                 1.3907                 2.8740
 IR Inten    --      4.7561                 6.9156                21.6491

                     70                     71                     72
                      A                      A                      A
 Frequencies --   1506.4468              1522.6897              1621.8140
 Red. masses --      3.2230                 1.8399                 4.9270
 Frc consts  --      4.3094                 2.5134                 7.6355
 IR Inten    --      8.3185                 2.4512                12.6823

                     73                     74                     75
                      A                      A                      A
 Frequencies --   1653.2123              1665.9595              1667.6855
 Red. masses --      5.7040                 5.9932                 6.2970
 Frc consts  --      9.1852                 9.8002                10.3184
 IR Inten    --      0.9714                 5.6318                 2.3285

                     76                     77                     78
                      A                      A                      A
 Frequencies --   3045.8211              3104.3463              3131.9294
 Red. masses --      1.0372                 1.1011                 1.1016
 Frc consts  --      5.6690                 6.2519                 6.3664
 IR Inten    --     24.2361                14.4940                11.2602

                     79                     80                     81
                      A                      A                      A
 Frequencies --   3159.0921              3167.7837              3179.5043
 Red. masses --      1.0895                 1.0913                 1.0909
 Frc consts  --      6.4063                 6.4522                 6.4977
 IR Inten    --     38.2848                 9.2619                 5.5513

                     82                     83                     84
                      A                      A                      A
 Frequencies --   3220.4595              3223.7442              3239.1752
 Red. masses --      1.0906                 1.0910                 1.0916
 Frc consts  --      6.6645                 6.6805                 6.7481
 IR Inten    --      0.8447                 0.4706                 0.9507

 - Thermochemistry -
 -------------------
 Temperature   298.150 Kelvin.  Pressure   1.00000 Atm.
 Atom     1 has atomic number  9 and mass  18.99840

 Molecular mass:   305.06392 amu.
 Principal axes and moments of inertia in atomic units:
                                 1                 2                 3
     Eigenvalues --         5274.660429       9285.471397      13496.598437
           X                   0.999908         -0.010948         -0.007971
           Y                   0.011035          0.999878          0.011014
           Z                   0.007849         -0.011101          0.999908
 This molecule is an asymmetric top.
 Rotational symmetry number  1.
 Warning -- assumption of classical behavior for rotation
           may cause significant error
 Rotational temperatures (Kelvin)      0.01642     0.00933     0.00642
 Rotational constants (GHZ):           0.34215     0.19436     0.13372
 Zero-point vibrational energy     543292.7 (Joules/Mol)
                                  129.85006 (Kcal/Mol)
 Warning -- explicit consideration of  27 degrees of freedom as
           vibrations may cause significant error
 Vibrational temperatures:     21.21    24.34    45.41    57.55    86.71
          (Kelvin)             93.28   157.44   172.67   217.41   277.55
                              314.42   344.10   376.14   401.65   423.69
                              456.14   497.02   517.35   596.75   606.06
                              643.02   673.30   715.30   745.47   785.94
                              797.72   815.09   893.47   938.60   947.69
                              974.77   981.74  1028.43  1041.20  1059.21
                             1134.20  1239.95  1285.91  1315.88  1343.28
                             1352.89  1360.43  1369.65  1395.58  1468.54
                             1469.53  1512.32  1538.35  1592.48  1622.63
                             1627.13  1716.57  1719.67  1728.39  1749.56
                             1759.49  1775.30  1860.98  1867.12  1882.39
                             1892.44  1950.84  1979.05  2026.52  2056.66
                             2094.13  2120.19  2156.45  2162.51  2167.44
                             2190.81  2333.43  2378.60  2396.94  2399.43
                             4382.26  4466.46  4506.15  4545.23  4557.73
                             4574.60  4633.52  4638.25  4660.45

 Zero-point correction=                           0.206929 (Hartree/Particle)
 Thermal correction to Energy=                    0.224991
 Thermal correction to Enthalpy=                  0.225935
 Thermal correction to Gibbs Free Energy=         0.156458
 Sum of electronic and zero-point Energies=          -1192.602461
 Sum of electronic and thermal Energies=             -1192.584399
 Sum of electronic and thermal Enthalpies=           -1192.583455
 Sum of electronic and thermal Free Energies=        -1192.652932

                     E (Thermal)             CV                S
                      KCal/Mol        Cal/Mol-Kelvin    Cal/Mol-Kelvin
 Total                  141.184             66.663            146.229
 Electronic               0.000              0.000              0.000
 Translational            0.889              2.981             43.043
 Rotational               0.889              2.981             34.846
 Vibrational            139.407             60.701             68.340
 Vibration     1          0.593              1.986              7.240
 Vibration     2          0.593              1.986              6.967
 Vibration     3          0.594              1.983              5.729
 Vibration     4          0.594              1.981              5.259
 Vibration     5          0.597              1.973              4.448
 Vibration     6          0.597              1.971              4.304
 Vibration     7          0.606              1.942              3.279
 Vibration     8          0.609              1.933              3.100
 Vibration     9          0.619              1.901              2.658
 Vibration    10          0.635              1.850              2.200
 Vibration    11          0.646              1.813              1.971
 Vibration    12          0.657              1.781              1.809
 Vibration    13          0.669              1.743              1.652
 Vibration    14          0.679              1.712              1.539
 Vibration    15          0.689              1.684              1.448
 Vibration    16          0.704              1.641              1.325
 Vibration    17          0.724              1.585              1.187
 Vibration    18          0.734              1.556              1.124
 Vibration    19          0.778              1.438              0.910
 Vibration    20          0.784              1.424              0.888
 Vibration    21          0.806              1.368              0.805
 Vibration    22          0.825              1.321              0.743
 Vibration    23          0.853              1.256              0.665
 Vibration    24          0.873              1.210              0.614
 Vibration    25          0.901              1.148              0.552
 Vibration    26          0.910              1.130              0.535
 Vibration    27          0.922              1.104              0.511

                           ! Non-Optimized Parameters !
 Normal termination of Gaussian 16 at Wed Aug 14 19:27:31 2024.

 ----------------------------------------------------------------------
 # M062X/def2tzvp int=(grid=ultrafine) pop=nbo7 polar prop=efg volume g
 uess=read geom=check
 ----------------------------------------------------------------------

 ---------
 pyrd7.xyz
 ---------
 Structure from the checkpoint file:  "pyrd7_conf-1.chk"
 Charge =  0 Multiplicity = 1

 SCF Done:  E(RM062X) =  -1192.80153667     A.U. after   12 cycles

  Exact polarizability:     237.030      -0.261     169.304      -1.881      13.938     110.848
 Approx polarizability:     266.174       1.933     223.768       0.586      21.359     155.412

 Summary of Natural Population Analysis:

                                     Natural Population
             Natural    ---------------------------------------------
  Atom No    Charge        Core      Valence    Rydberg      Total
 --------------------------------------------------------------------
    F  1   -0.32529      2.00000     7.31530    0.00999     9.32529
    C  2    0.98117      1.99999     2.97174    0.04710     5.01883
    F  3   -0.32219      2.00000     7.31222    0.00998     9.32219
    C  4   -0.13466      1.99999     4.11616    0.01850     6.13466
    C  5   -0.16027      1.99999     4.14446    0.01581     6.16027
    C  6   -0.13376      1.99999     4.11527    0.01849     6.13376
    C  7    0.98103      1.99999     2.97185    0.04713     5.01897
    F  8   -0.32259      2.00000     7.31264    0.00995     9.32259
    F  9   -0.32356      2.00000     7.31348    0.01007     9.32356
    F 10   -0.32276      2.00000     7.31267    0.01010     9.32276
    C 11   -0.15380      1.99999     4.13862    0.01520     6.15380
    C 12   -0.03349      1.99999     4.01553    0.01796     6.03349
    C 13   -0.09367      1.99999     4.07643    0.01725     6.09367
    C 14    0.04178      1.99999     3.93708    0.02114     5.95822
    N 15   -0.39919      1.99999     5.36764    0.03157     7.39919
    C 16    0.03587      1.99999     3.94263    0.02150     5.96413
    C 17   -0.05225      1.99999     4.03754    0.01472     6.05225
    C 18   -0.62909      1.99999     4.61978    0.00932     6.62909
    C 19   -0.15777      1.99999     4.14259    0.01518     6.15777
    C 20   -0.15542      1.99999     4.14036    0.01507     6.15542
    F 21   -0.32253      2.00000     7.31242    0.01011     9.32253
    H 22    0.25134      0.00000     0.74744    0.00122     0.74866
    H 23    0.23912      0.00000     0.75954    0.00134     0.76088
    H 24    0.19629      0.00000     0.80223    0.00148     0.80371
    H 25    0.19345      0.00000     0.80505    0.00150     0.80655
    H 26    0.22150      0.00000     0.77739    0.00111     0.77850
    H 27    0.22439      0.00000     0.77437    0.00124     0.77561
    H 28    0.22484      0.00000     0.77391    0.00125     0.77516
    H 29    0.21563      0.00000     0.78270    0.00167     0.78437
    H 30    0.23588      0.00000     0.76277    0.00135     0.76412
 ====================================================================
 * Total *  0.00000     41.99986   111.60184    0.39830   154.00000

 Normal termination of Gaussian 16 at Wed Aug 14 19:45:24 2024.
 Gaussian 16:  ES64L-G16RevC.01  3-Jul-2019

 --------------------------------------------------------------------
 # M062X/def2tzvp int=(grid=ultrafine) nmr=giao guess=read geom=check
 --------------------------------------------------------------------

 ---------
 pyrd7.xyz
 ---------
 Structure from the checkpoint file:  "pyrd7_conf-1.chk"
 Charge =  0 Multiplicity = 1

                         Standard orientation:
 ---------------------------------------------------------------------
 Center     Atomic      Atomic             Coordinates (Angstroms)
 Number     Number       Type             X           Y           Z
 ---------------------------------------------------------------------
      1          9           0        1.027761    3.588972    0.390733
      2          6           0        1.861575    2.675103   -0.153062
      3          9           0        2.060693    3.038736   -1.439725
      4          6           0        1.297668    1.283059   -0.056100
      5          6           0        2.160730    0.192585    0.033001
      6          6           0        1.622590   -1.092794    0.052889
      7          6           0        2.533986   -2.278259    0.226122
      8          9           0        2.713523   -2.574413    1.533120
      9          9           0        2.032164   -3.383860   -0.364747
     10          9           0        3.755850   -2.049632   -0.300235
     11          6           0        0.244655   -1.288673   -0.013354
     12          6           0       -0.628166   -0.195563   -0.105217
     13          6           0       -2.091264   -0.398506   -0.178728
     14          6           0       -2.638822   -1.469899   -0.903319
     15          7           0       -3.947038   -1.706884   -1.001149
     16          6           0       -4.777764   -0.865941   -0.374831
     17          6           0       -4.362502    0.245251    0.367941
     18          6           0       -5.355407    1.153426    1.044348
     19          6           0       -2.986934    0.465564    0.459557
     20          6           0       -0.080968    1.094422   -0.126589
     21          9           0        3.050414    2.778314    0.477572
     22          1           0        3.231686    0.341543    0.086326
     23          1           0       -0.152556   -2.296119    0.023867
     24          1           0       -1.984467   -2.150208   -1.444402
     25          1           0       -5.840200   -1.086423   -0.465660
     26          1           0       -6.376691    0.785292    0.918902
     27          1           0       -5.154473    1.232017    2.117914
     28          1           0       -5.311375    2.166787    0.630402
     29          1           0       -2.610373    1.297396    1.049227
     30          1           0       -0.732181    1.956200   -0.214958
 ---------------------------------------------------------------------

 SCF Done:  E(RM062X) =  -1192.80153667     A.U. after    1 cycles

      1  F    Isotropic =   248.7838   Anisotropy =   140.5477

      2  C    Isotropic =    50.4968   Anisotropy =    13.5786

      3  F    Isotropic =   223.0373   Anisotropy =   150.1189

      4  C    Isotropic =    28.6260   Anisotropy =   190.0261

      5  C    Isotropic =    41.4783   Anisotropy =   215.9366

      6  C    Isotropic =    28.9125   Anisotropy =   191.1839

      7  C    Isotropic =    50.5251   Anisotropy =    13.3721

      8  F    Isotropic =   223.1366   Anisotropy =   149.9060

      9  F    Isotropic =   248.8311   Anisotropy =   139.2024

     10  F    Isotropic =   249.4659   Anisotropy =   137.5972

     11  C    Isotropic =    34.6569   Anisotropy =   207.4774

     12  C    Isotropic =    19.5725   Anisotropy =   224.6561

     13  C    Isotropic =    29.2498   Anisotropy =   207.5532

     14  C    Isotropic =    15.2053   Anisotropy =   188.1831

     15  N    Isotropic =  -157.3613   Anisotropy =   676.8844

     16  C    Isotropic =     9.6912   Anisotropy =   182.2986

     17  C    Isotropic =    29.3022   Anisotropy =   223.2930

     18  C    Isotropic =   166.7923   Anisotropy =    35.5819

     19  C    Isotropic =    27.2837   Anisotropy =   204.0052

     20  C    Isotropic =    34.7476   Anisotropy =   207.8774

     21  F    Isotropic =   250.1765   Anisotropy =   136.7831

     22  H    Isotropic =    23.1025   Anisotropy =    12.5292

     23  H    Isotropic =    22.8687   Anisotropy =    12.1491

     24  H    Isotropic =    22.1400   Anisotropy =    10.5413

     25  H    Isotropic =    22.4126   Anisotropy =     8.6778

     26  H    Isotropic =    29.5343   Anisotropy =     8.5884

     27  H    Isotropic =    29.3104   Anisotropy =     7.4951

     28  H    Isotropic =    29.2620   Anisotropy =     8.1341

     29  H    Isotropic =    23.3129   Anisotropy =    12.5381

     30  H    Isotropic =    23.0381   Anisotropy =    12.7335

 The electronic state is 1-A.
 Alpha  occ. eigenvalues --  -25.29226 -25.29196 -25.29095 -25.29082 -25.28816
 Alpha  occ. eigenvalues --  -25.28714 -14.76382 -10.81405 -10.81301 -10.59960
 Alpha  occ. eigenvalues --  -10.59921 -10.59639 -10.59194 -10.59175 -10.58969
 Alpha  occ. eigenvalues --  -10.58913 -10.58829 -10.58157 -10.57661 -10.57566
 Alpha  occ. eigenvalues --  -10.55455  -1.47232  -1.47122  -1.38467  -1.38353
 Alpha  occ. eigenvalues --   -1.38076  -1.37967  -1.06812  -1.01929  -0.94644
 Alpha  occ. eigenvalues --   -0.93010  -0.92126  -0.86926  -0.83115  -0.82367
 Alpha  occ. eigenvalues --   -0.80703  -0.76010  -0.75166  -0.73015  -0.71530
 Alpha  occ. eigenvalues --   -0.70141  -0.70049  -0.69935  -0.69757  -0.66563
 Alpha  occ. eigenvalues --   -0.63773  -0.61814  -0.60451  -0.59650  -0.58524
 Alpha  occ. eigenvalues --   -0.58284  -0.58053  -0.58021  -0.55987  -0.55380
 Alpha  occ. eigenvalues --   -0.54578  -0.54363  -0.54043  -0.53458  -0.52604
 Alpha  occ. eigenvalues --   -0.52487  -0.51566  -0.50793  -0.50413  -0.49825
 Alpha  occ. eigenvalues --   -0.48674  -0.48599  -0.47201  -0.46904  -0.46230
 Alpha  occ. eigenvalues --   -0.44843  -0.43204  -0.38166  -0.35635  -0.34370
 Alpha  occ. eigenvalues --   -0.33781  -0.31069
 Alpha virt. eigenvalues --   -0.04335  -0.03417  -0.01324   0.01841   0.05847
 Alpha virt. eigenvalues --    0.08302   0.09079   0.10019   0.10480   0.10840
 Alpha virt. eigenvalues --    0.11894   0.12540   0.12917   0.13428   0.14502

 Mulliken charges:
               1
     1  F   -0.180938
     2  C    0.502765
     3  F   -0.172182
     4  C   -0.008499
     5  C   -0.197451
     6  C   -0.008947
     7  C    0.502407
     8  F   -0.172782
     9  F   -0.178538
    10  F   -0.177370
    11  C   -0.248374
    12  C    0.140763
    13  C    0.054679
    14  C   -0.107816
    15  N   -0.214330
    16  C   -0.066229
    17  C    0.051930
    18  C   -0.480738
    19  C   -0.176484
    20  C   -0.246339
    21  F   -0.177083
    22  H    0.194292
    23  H    0.206258
    24  H    0.164503
    25  H    0.143694
    26  H    0.146695
    27  H    0.162694
    28  H    0.164498
    29  H    0.180199
    30  H    0.198720
 Sum of Mulliken charges =  -0.00000

 Dipole moment (field-independent basis, Debye):
    X=             -2.8390    Y=              1.5299    Z=              1.2215  Tot=              3.4486
 Quadrupole moment (field-independent basis, Debye-Ang):
   XX=           -113.5827   YY=           -128.2432   ZZ=           -121.3228
   XY=             -8.1435   XZ=             -6.7664   YZ=              0.8828

 Normal termination of Gaussian 16 at Wed Aug 14 19:52:40 2024.
