 Gaussian 16, Revision C.01,

 ----------------------------------------------------------------------
 # B3LYP/6-31G(d,p) symmetry=loose empiricaldispersion=GD3BJ int=(grid=
 ultrafine) opt freq=noraman
 ----------------------------------------------------------------------

 ----------
 pyrd10.xyz
 ----------
 Symbolic Z-matrix:
 Charge =  0 Multiplicity = 1

 SCF Done:  E(RB3LYP) =  -2937.38549759     A.U. after   14 cycles
 SCF Done:  E(RB3LYP) =  -2937.38771013     A.U. after   11 cycles
 SCF Done:  E(RB3LYP) =  -2937.38787940     A.U. after   11 cycles
 SCF Done:  E(RB3LYP) =  -2937.38788808     A.U. after   10 cycles
 SCF Done:  E(RB3LYP) =  -2937.38789560     A.U. after    9 cycles
 SCF Done:  E(RB3LYP) =  -2937.38789606     A.U. after    7 cycles
 SCF Done:  E(RB3LYP) =  -2937.38789611     A.U. after    7 cycles
 SCF Done:  E(RB3LYP) =  -2937.38789614     A.U. after    7 cycles
 SCF Done:  E(RB3LYP) =  -2937.38789616     A.U. after    7 cycles
 SCF Done:  E(RB3LYP) =  -2937.38789617     A.U. after    7 cycles
 Optimization completed.
    -- Stationary point found.
 Normal termination of Gaussian 16 at Wed Aug 14 18:47:41 2024.

 ----------------------------------------------------------------------
 #N Geom=AllCheck Guess=TCheck SCRF=Check GenChk RB3LYP/6-31G(d,p) Freq
 ----------------------------------------------------------------------

 Structure from the checkpoint file:  "pyrd10_conf-5.chk"
 ----------
 pyrd10.xyz
 ----------
 Charge =  0 Multiplicity = 1

 SCF Done:  E(RB3LYP) =  -2937.38789617     A.U. after    1 cycles

                      1                      2                      3
                      A                      A                      A
 Frequencies --     27.1781                34.6827                92.6660
 Red. masses --      3.8772                 5.4457                 3.7953
 Frc consts  --      0.0017                 0.0039                 0.0192
 IR Inten    --      0.2694                 0.2720                 0.7106

                      4                      5                      6
                      A                      A                      A
 Frequencies --    113.0467               228.1438               275.3524
 Red. masses --      5.4519                 2.0905                 3.2062
 Frc consts  --      0.0411                 0.0641                 0.1432
 IR Inten    --      0.9090                 0.7506                 0.5208

                      7                      8                      9
                      A                      A                      A
 Frequencies --    334.5573               379.3236               414.2380
 Red. masses --      2.4645                 3.5213                 3.2761
 Frc consts  --      0.1625                 0.2985                 0.3312
 IR Inten    --      1.3558                 1.8474                 2.8414

                     10                     11                     12
                      A                      A                      A
 Frequencies --    507.8537               563.1810               615.0993
 Red. masses --      3.9869                 3.7022                 5.2505
 Frc consts  --      0.6058                 0.6918                 1.1704
 IR Inten    --      0.4559                16.8063                 1.2974

                     13                     14                     15
                      A                      A                      A
 Frequencies --    651.8586               733.3814               769.0242
 Red. masses --      5.8695                 2.0219                 1.3922
 Frc consts  --      1.4695                 0.6407                 0.4851
 IR Inten    --      3.0253                20.2347                 7.7747

                     16                     17                     18
                      A                      A                      A
 Frequencies --    808.6833               836.1616               867.0262
 Red. masses --      1.8042                 1.7273                 2.6945
 Frc consts  --      0.6952                 0.7115                 1.1934
 IR Inten    --     12.0719                 2.0276                 2.7784

                     19                     20                     21
                      A                      A                      A
 Frequencies --    948.9046               960.6872               984.5808
 Red. masses --      1.3326                 1.5318                 1.8202
 Frc consts  --      0.7070                 0.8329                 1.0396
 IR Inten    --      0.1659                 2.7306                 7.3039

                     22                     23                     24
                      A                      A                      A
 Frequencies --    996.1602              1019.7168              1044.7834
 Red. masses --      1.3717                 1.6639                 4.0427
 Frc consts  --      0.8020                 1.0194                 2.6000
 IR Inten    --      0.0514                 1.1711                10.3703

                     25                     26                     27
                      A                      A                      A
 Frequencies --   1070.0466              1074.8622              1131.2745
 Red. masses --      2.5499                 2.4470                 1.3406
 Frc consts  --      1.7202                 1.6657                 1.0108
 IR Inten    --      1.1419                 0.9598                 2.3718

                     28                     29                     30
                      A                      A                      A
 Frequencies --   1157.1443              1205.8205              1228.5934
 Red. masses --      1.2505                 1.3367                 1.6862
 Frc consts  --      0.9865                 1.1452                 1.4996
 IR Inten    --      3.1582                 4.6525                 8.4177

                     31                     32                     33
                      A                      A                      A
 Frequencies --   1253.0130              1276.5739              1309.0355
 Red. masses --      1.7036                 1.3555                 2.2265
 Frc consts  --      1.5759                 1.3015                 2.2479
 IR Inten    --      1.2306                44.2130                12.7986

                     34                     35                     36
                      A                      A                      A
 Frequencies --   1326.1348              1338.9911              1378.5541
 Red. masses --      1.9466                 1.2197                 1.2049
 Frc consts  --      2.0170                 1.2884                 1.3491
 IR Inten    --      3.0947                 7.6889                 2.7671

                     37                     38                     39
                      A                      A                      A
 Frequencies --   1401.1736              1469.6203              1484.4646
 Red. masses --      1.5300                 2.3134                 1.0852
 Frc consts  --      1.7698                 2.9438                 1.4090
 IR Inten    --      2.1646                26.2380                 4.3524

                     40                     41                     42
                      A                      A                      A
 Frequencies --   1492.7818              1511.6630              1523.7298
 Red. masses --      1.1087                 1.1074                 2.2550
 Frc consts  --      1.4556                 1.4910                 3.0847
 IR Inten    --      1.4614                 3.9148                12.6896

                     43                     44                     45
                      A                      A                      A
 Frequencies --   1629.9485              1651.6067              3029.6999
 Red. masses --      5.2587                 5.8319                 1.0657
 Frc consts  --      8.2314                 9.3729                 5.7632
 IR Inten    --     11.1805                 1.5539                13.0351

                     46                     47                     48
                      A                      A                      A
 Frequencies --   3043.8588              3087.6682              3104.4205
 Red. masses --      1.0655                 1.0916                 1.0912
 Frc consts  --      5.8163                 6.1317                 6.1963
 IR Inten    --     23.2929                 4.0833                 3.1265

                     49                     50                     51
                      A                      A                      A
 Frequencies --   3111.1578              3149.3867              3167.0091
 Red. masses --      1.0693                 1.0898                 1.0890
 Frc consts  --      6.0979                 6.3690                 6.4354
 IR Inten    --     26.8093                26.7273                13.0261

                     52                     53                     54
                      A                      A                      A
 Frequencies --   3175.0856              3177.5150              3206.5904
 Red. masses --      1.0902                 1.1112                 1.0963
 Frc consts  --      6.4756                 6.6105                 6.6415
 IR Inten    --     19.0630                 6.4716                19.5849

 - Thermochemistry -
 -------------------
 Temperature   298.150 Kelvin.  Pressure   1.00000 Atm.
 Atom     1 has atomic number 35 and mass  78.91834

 Molecular mass:   198.99966 amu.
 Principal axes and moments of inertia in atomic units:
                                 1                 2                 3
     Eigenvalues --          587.105218       5687.135483       6077.161114
           X                   0.999963          0.007834          0.003443
           Y                  -0.007837          0.999969          0.000972
           Z                  -0.003435         -0.000999          0.999994
 This molecule is an asymmetric top.
 Rotational symmetry number  1.
 Warning -- assumption of classical behavior for rotation
           may cause significant error
 Rotational temperatures (Kelvin)      0.14753     0.01523     0.01425
 Rotational constants (GHZ):           3.07397     0.31734     0.29697
 Zero-point vibrational energy     432890.9 (Joules/Mol)
                                  103.46342 (Kcal/Mol)
 Warning -- explicit consideration of  12 degrees of freedom as
           vibrations may cause significant error
 Vibrational temperatures:     39.10    49.90   133.33   162.65   328.25
          (Kelvin)            396.17   481.35   545.76   596.00   730.69
                              810.29   884.99   937.88  1055.17  1106.45
                             1163.51  1203.05  1247.46  1365.26  1382.21
                             1416.59  1433.25  1467.15  1503.21  1539.56
                             1546.49  1627.65  1664.87  1734.91  1767.67
                             1802.81  1836.71  1883.41  1908.01  1926.51
                             1983.43  2015.98  2114.46  2135.81  2147.78
                             2174.95  2192.31  2345.13  2376.29  4359.06
                             4379.43  4442.47  4466.57  4476.26  4531.27
                             4556.62  4568.24  4571.74  4613.57

 Zero-point correction=                           0.164879 (Hartree/Particle)
 Thermal correction to Energy=                    0.174435
 Thermal correction to Enthalpy=                  0.175379
 Thermal correction to Gibbs Free Energy=         0.126758
 Sum of electronic and zero-point Energies=          -2937.223017
 Sum of electronic and thermal Energies=             -2937.213461
 Sum of electronic and thermal Enthalpies=           -2937.212517
 Sum of electronic and thermal Free Energies=        -2937.261138

                     E (Thermal)             CV                S
                      KCal/Mol        Cal/Mol-Kelvin    Cal/Mol-Kelvin
 Total                  109.460             34.653            102.331
 Electronic               0.000              0.000              0.000
 Translational            0.889              2.981             41.769
 Rotational               0.889              2.981             31.385
 Vibrational            107.682             28.691             29.177
 Vibration     1          0.593              1.984              6.025
 Vibration     2          0.594              1.983              5.542
 Vibration     3          0.602              1.954              3.603
 Vibration     4          0.607              1.939              3.216
 Vibration     5          0.651              1.798              1.894
 Vibration     6          0.677              1.719              1.562
 Vibration     7          0.716              1.606              1.238
 Vibration     8          0.749              1.514              1.042
 Vibration     9          0.778              1.439              0.912
 Vibration    10          0.863              1.233              0.639
 Vibration    11          0.919              1.111              0.518
 Vibration    12          0.975              1.000              0.424

 Optimization completed.
    -- Stationary point found.
 Normal termination of Gaussian 16 at Wed Aug 14 18:48:55 2024.

 ----------------------------------------------------------------------
 # M062X/def2tzvp int=(grid=ultrafine) pop=nbo7 polar prop=efg volume g
 uess=read geom=check
 ----------------------------------------------------------------------

 ----------
 pyrd10.xyz
 ----------
 Structure from the checkpoint file:  "pyrd10_conf-5.chk"
 Charge =  0 Multiplicity = 1

 SCF Done:  E(RM062X) =  -2939.78886761     A.U. after   11 cycles

  Exact polarizability:     155.149      -5.002     114.253      -6.204      -2.063      80.653
 Approx polarizability:     169.181      -9.871     162.234     -10.221      -4.263     111.286

 Summary of Natural Population Analysis:

                                     Natural Population
             Natural    ---------------------------------------------
  Atom No    Charge        Core      Valence    Rydberg      Total
 --------------------------------------------------------------------
   Br  1   -0.05565     27.99997     7.04538    0.01030    35.05565
    C  2   -0.39053      1.99999     4.37198    0.01856     6.39053
    C  3   -0.41645      1.99999     4.40268    0.01378     6.41645
    C  4   -0.42652      1.99999     4.41234    0.01418     6.42652
    C  5   -0.05861      1.99999     4.04145    0.01717     6.05861
    C  6    0.03258      1.99999     3.94541    0.02201     5.96742
    N  7   -0.40865      1.99999     5.37682    0.03184     7.40865
    C  8    0.02249      1.99999     3.95517    0.02235     5.97751
    C  9   -0.25115      1.99999     4.23494    0.01622     6.25115
    C 10   -0.17815      1.99999     4.16147    0.01668     6.17815
    H 11    0.22395      0.00000     0.77447    0.00158     0.77605
    H 12    0.21385      0.00000     0.78415    0.00200     0.78615
    H 13    0.21567      0.00000     0.78275    0.00158     0.78433
    H 14    0.21720      0.00000     0.78075    0.00205     0.78280
    H 15    0.23003      0.00000     0.76782    0.00216     0.76997
    H 16    0.20946      0.00000     0.78857    0.00197     0.79054
    H 17    0.19250      0.00000     0.80589    0.00161     0.80750
    H 18    0.19483      0.00000     0.80376    0.00141     0.80517
    H 19    0.22066      0.00000     0.77821    0.00113     0.77934
    H 20    0.21250      0.00000     0.78599    0.00151     0.78750
 ====================================================================
 * Total *  0.00000     45.99990    53.80000    0.20010   100.00000

 Normal termination of Gaussian 16 at Wed Aug 14 18:53:10 2024.
 Gaussian 16:  ES64L-G16RevC.01  3-Jul-2019

 --------------------------------------------------------------------
 # M062X/def2tzvp int=(grid=ultrafine) nmr=giao guess=read geom=check
 --------------------------------------------------------------------

 ----------
 pyrd10.xyz
 ----------
 Structure from the checkpoint file:  "pyrd10_conf-5.chk"
 Charge =  0 Multiplicity = 1

                         Standard orientation:
 ---------------------------------------------------------------------
 Center     Atomic      Atomic             Coordinates (Angstroms)
 Number     Number       Type             X           Y           Z
 ---------------------------------------------------------------------
      1         35           0        3.017160   -0.403685   -0.097796
      2          6           0        1.995070    1.192065    0.489566
      3          6           0        0.526272    0.869640    0.698820
      4          6           0       -0.206410    0.446988   -0.585103
      5          6           0       -1.660667    0.144683   -0.331483
      6          6           0       -2.075970   -1.147837    0.013510
      7          7           0       -3.337534   -1.489157    0.295002
      8          6           0       -4.260850   -0.521468    0.238932
      9          6           0       -3.966971    0.800174   -0.096301
     10          6           0       -2.645975    1.134202   -0.383735
     11          1           0        2.483370    1.516353    1.407303
     12          1           0        2.154094    1.932020   -0.295321
     13          1           0        0.047805    1.768415    1.112383
     14          1           0        0.426562    0.084086    1.455152
     15          1           0        0.294779   -0.433731   -0.998195
     16          1           0       -0.114236    1.245211   -1.331858
     17          1           0       -1.340860   -1.950934    0.059373
     18          1           0       -5.282115   -0.817630    0.469526
     19          1           0       -4.755168    1.545183   -0.133456
     20          1           0       -2.379088    2.153421   -0.652292
 ---------------------------------------------------------------------

 SCF Done:  E(RM062X) =  -2939.78886761     A.U. after    1 cycles

      1  Br   Isotropic =  2375.2805   Anisotropy =   918.8582

      2  C    Isotropic =   136.5835   Anisotropy =    44.1074

      3  C    Isotropic =   143.7346   Anisotropy =    33.5871

      4  C    Isotropic =   149.8082   Anisotropy =    32.4877

      5  C    Isotropic =    25.0692   Anisotropy =   226.8819

      6  C    Isotropic =     9.6897   Anisotropy =   189.4993

      7  N    Isotropic =  -156.5410   Anisotropy =   681.9686

      8  C    Isotropic =    12.8009   Anisotropy =   205.6556

      9  C    Isotropic =    41.4801   Anisotropy =   200.9350

     10  C    Isotropic =    26.6847   Anisotropy =   215.7130

     11  H    Isotropic =    28.1894   Anisotropy =    11.1698

     12  H    Isotropic =    28.4694   Anisotropy =    10.9701

     13  H    Isotropic =    30.0158   Anisotropy =     8.0282

     14  H    Isotropic =    30.1394   Anisotropy =     4.7257

     15  H    Isotropic =    28.3697   Anisotropy =     6.4057

     16  H    Isotropic =    29.5989   Anisotropy =     6.7886

     17  H    Isotropic =    22.3113   Anisotropy =    11.0627

     18  H    Isotropic =    22.4601   Anisotropy =     6.9896

     19  H    Isotropic =    23.9898   Anisotropy =     6.8316

     20  H    Isotropic =    23.6718   Anisotropy =     9.9224

 The electronic state is 1-A.
 Alpha  occ. eigenvalues -- -485.36383 -63.34886 -57.16826 -57.16592 -57.16589
 Alpha  occ. eigenvalues --  -14.75088 -10.60433 -10.57709 -10.57684 -10.56391
 Alpha  occ. eigenvalues --  -10.56204 -10.56053 -10.55479 -10.55367  -9.01521
 Alpha  occ. eigenvalues --   -6.83912  -6.83057  -6.83043  -2.87278  -2.86975
 Alpha  occ. eigenvalues --   -2.86963  -2.86164  -2.86164  -1.05329  -0.94274
 Alpha  occ. eigenvalues --   -0.91086  -0.87801  -0.83724  -0.77687  -0.71979
 Alpha  occ. eigenvalues --   -0.70492  -0.67695  -0.60194  -0.57262  -0.55105
 Alpha  occ. eigenvalues --   -0.53932  -0.51628  -0.50633  -0.47661  -0.47280
 Alpha  occ. eigenvalues --   -0.46430  -0.45056  -0.43147  -0.41683  -0.40347
 Alpha  occ. eigenvalues --   -0.34808  -0.34087  -0.33892  -0.32574  -0.31200
 Alpha virt. eigenvalues --   -0.00211   0.01165   0.02682   0.06058   0.08216
 Alpha virt. eigenvalues --    0.09207   0.09475   0.10631   0.12333   0.12591
 Alpha virt. eigenvalues --    0.13532   0.14329   0.15034   0.15637   0.16331

 Mulliken charges:
               1
     1  Br  -0.159998
     2  C   -0.210227
     3  C   -0.275382
     4  C   -0.441871
     5  C    0.125173
     6  C   -0.091483
     7  N   -0.218272
     8  C   -0.054987
     9  C   -0.155109
    10  C   -0.140100
    11  H    0.175296
    12  H    0.167573
    13  H    0.154346
    14  H    0.176485
    15  H    0.189897
    16  H    0.164739
    17  H    0.153412
    18  H    0.144104
    19  H    0.141839
    20  H    0.154564
 Sum of Mulliken charges =  -0.00000

 Dipole moment (field-independent basis, Debye):
    X=             -0.3913    Y=              3.6920    Z=              0.1152  Tot=              3.7145
 Quadrupole moment (field-independent basis, Debye-Ang):
   XX=            -77.0855   YY=            -71.6021   ZZ=            -74.4480
   XY=             -5.2180   XZ=              1.9363   YZ=              0.9007

 Normal termination of Gaussian 16 at Wed Aug 14 18:54:40 2024.
