 Gaussian 16, Revision C.01,

 ----------------------------------------------------------------------
 # B3LYP/6-31G(d,p) symmetry=loose empiricaldispersion=GD3BJ int=(grid=
 ultrafine) opt freq=noraman
 ----------------------------------------------------------------------

 ---------
 pyrd8.xyz
 ---------
 Symbolic Z-matrix:
 Charge =  0 Multiplicity = 1

 SCF Done:  E(RB3LYP) =  -3426.62185669     A.U. after   15 cycles
 SCF Done:  E(RB3LYP) =  -3426.62829658     A.U. after   13 cycles
 SCF Done:  E(RB3LYP) =  -3426.62892924     A.U. after   11 cycles
 SCF Done:  E(RB3LYP) =  -3426.62898850     A.U. after   10 cycles
 SCF Done:  E(RB3LYP) =  -3426.62899262     A.U. after    9 cycles
 SCF Done:  E(RB3LYP) =  -3426.62899372     A.U. after    8 cycles
 SCF Done:  E(RB3LYP) =  -3426.62899419     A.U. after    7 cycles
 Optimization completed.
    -- Stationary point found.
 Normal termination of Gaussian 16 at Wed Aug 14 19:41:07 2024.

 ----------------------------------------------------------------------
 #N Geom=AllCheck Guess=TCheck SCRF=Check GenChk RB3LYP/6-31G(d,p) Freq
 ----------------------------------------------------------------------

 Structure from the checkpoint file:  "pyrd8_conf-1.chk"
 ---------
 pyrd8.xyz
 ---------
 Charge =  0 Multiplicity = 1

 SCF Done:  E(RB3LYP) =  -3426.62899419     A.U. after    1 cycles

                      1                      2                      3
                      A                      A                      A
 Frequencies --     31.4662                31.7335                84.1143
 Red. masses --      1.2602                 3.1229                11.9164
 Frc consts  --      0.0007                 0.0019                 0.0497
 IR Inten    --      0.4207                 0.7437                 1.2811

                      4                      5                      6
                      A                      A                      A
 Frequencies --     87.8222               151.4247               194.5743
 Red. masses --      5.8361                 4.6276                 4.4139
 Frc consts  --      0.0265                 0.0625                 0.0985
 IR Inten    --      0.5850                 0.1343                 1.6777

                      7                      8                      9
                      A                      A                      A
 Frequencies --    214.3326               255.3633               262.2700
 Red. masses --      3.7952                 8.6564                 5.6331
 Frc consts  --      0.1027                 0.3326                 0.2283
 IR Inten    --      0.0912                 1.4392                 1.2011

                     10                     11                     12
                      A                      A                      A
 Frequencies --    295.8302               377.2923               484.8228
 Red. masses --      9.5410                 4.7453                 5.1864
 Frc consts  --      0.4920                 0.3980                 0.7183
 IR Inten    --      3.5482                 2.0920                 0.6915

                     13                     14                     15
                      A                      A                      A
 Frequencies --    485.1076               526.9935               548.8461
 Red. masses --      5.2661                 5.4385                 3.9938
 Frc consts  --      0.7302                 0.8899                 0.7088
 IR Inten    --      0.3591                 6.3129                 2.7453

                     16                     17                     18
                      A                      A                      A
 Frequencies --    608.5108               651.6157               653.0540
 Red. masses --      4.4092                 4.9841                10.1444
 Frc consts  --      0.9619                 1.2469                 2.5490
 IR Inten    --      7.8117                 3.5921                 3.2804

                     19                     20                     21
                      A                      A                      A
 Frequencies --    754.1064               754.3077               778.1102
 Red. masses --      7.7257                 3.4448                 9.2019
 Frc consts  --      2.5885                 1.1548                 3.2825
 IR Inten    --      2.9511                 0.0364                51.9230

                     22                     23                     24
                      A                      A                      A
 Frequencies --    803.2417               862.8252               873.8861
 Red. masses --      1.2083                 1.4666                 1.5141
 Frc consts  --      0.4593                 0.6433                 0.6813
 IR Inten    --     19.7246                24.3523                 5.2666

                     25                     26                     27
                      A                      A                      A
 Frequencies --    880.1148               896.7915               899.5140
 Red. masses --      4.9870                 5.5590                 1.3891
 Frc consts  --      2.2760                 2.6341                 0.6622
 IR Inten    --     69.0576                 4.5550                 0.2147

                     28                     29                     30
                      A                      A                      A
 Frequencies --   1006.1504              1023.2915              1064.1612
 Red. masses --      6.2925                 1.5388                 1.5602
 Frc consts  --      3.7532                 0.9494                 1.0410
 IR Inten    --      2.6036                 0.5632                 8.7816

                     31                     32                     33
                      A                      A                      A
 Frequencies --   1077.5663              1161.8562              1165.3693
 Red. masses --      2.9460                 1.8712                 2.1708
 Frc consts  --      2.0154                 1.4882                 1.7370
 IR Inten    --     14.8051                56.2109                 9.8069

                     34                     35                     36
                      A                      A                      A
 Frequencies --   1229.8137              1268.2843              1310.9491
 Red. masses --      1.9479                 1.3437                 3.5085
 Frc consts  --      1.7358                 1.2735                 3.5526
 IR Inten    --     55.7568                19.6626                 4.0125

                     37                     38                     39
                      A                      A                      A
 Frequencies --   1330.8254              1355.7784              1424.7661
 Red. masses --      3.8513                 2.5082                 1.2622
 Frc consts  --      4.0189                 2.7164                 1.5096
 IR Inten    --     11.3029                 8.8005                 5.2103

                     40                     41                     42
                      A                      A                      A
 Frequencies --   1433.5204              1449.5927              1474.7583
 Red. masses --      3.6710                 4.6207                 4.8992
 Frc consts  --      4.4447                 5.7207                 6.2779
 IR Inten    --     56.1118                15.0916                33.7008

                     43                     44                     45
                      A                      A                      A
 Frequencies --   1497.6453              1502.0082              1579.4882
 Red. masses --      1.1417                 1.0571                 6.2285
 Frc consts  --      1.5087                 1.4052                 9.1552
 IR Inten    --     67.1588                 6.7360                77.2760

                     46                     47                     48
                      A                      A                      A
 Frequencies --   1599.9206              1641.5687              3049.1211
 Red. masses --      6.0463                 5.9587                 1.0390
 Frc consts  --      9.1188                 9.4607                 5.6914
 IR Inten    --    148.0935               154.9869                15.2103

                     49                     50                     51
                      A                      A                      A
 Frequencies --   3113.2183              3140.2531              3207.7684
 Red. masses --      1.0974                 1.1035                 1.0914
 Frc consts  --      6.2665                 6.4115                 6.6167
 IR Inten    --     13.1199                11.1118                 4.3869

                     52                     53                     54
                      A                      A                      A
 Frequencies --   3225.5343              3227.8428              3235.1250
 Red. masses --      1.0922                 1.0927                 1.0943
 Frc consts  --      6.6949                 6.7080                 6.7481
 IR Inten    --      6.8892                 0.1799                 0.1840

 - Thermochemistry -
 -------------------
 Temperature   298.150 Kelvin.  Pressure   1.00000 Atm.
 Atom     1 has atomic number 35 and mass  78.91834

 Molecular mass:   253.95133 amu.
 Principal axes and moments of inertia in atomic units:
                                 1                 2                 3
     Eigenvalues --         2268.380383       5882.389918       8139.529433
           X                   0.998481         -0.055101         -0.000026
           Y                   0.055101          0.998481          0.000359
           Z                   0.000006         -0.000359          1.000000
 This molecule is an asymmetric top.
 Rotational symmetry number  1.
 Warning -- assumption of classical behavior for rotation
           may cause significant error
 Rotational temperatures (Kelvin)      0.03818     0.01472     0.01064
 Rotational constants (GHZ):           0.79561     0.30680     0.22173
 Zero-point vibrational energy     372303.3 (Joules/Mol)
                                   88.98262 (Kcal/Mol)
 Warning -- explicit consideration of  16 degrees of freedom as
           vibrations may cause significant error
 Vibrational temperatures:     45.27    45.66   121.02   126.36   217.87
          (Kelvin)            279.95   308.38   367.41   377.35   425.63
                              542.84   697.55   697.96   758.23   789.67
                              875.51   937.53   939.60  1084.99  1085.28
                             1119.53  1155.69  1241.41  1257.33  1266.29
                             1290.28  1294.20  1447.63  1472.29  1531.09
                             1550.38  1671.65  1676.71  1769.43  1824.78
                             1886.16  1914.76  1950.66  2049.92  2062.52
                             2085.64  2121.85  2154.78  2161.05  2272.53
                             2301.93  2361.85  4387.01  4479.23  4518.12
                             4615.26  4640.82  4644.15  4654.62

 Zero-point correction=                           0.141803 (Hartree/Particle)
 Thermal correction to Energy=                    0.153552
 Thermal correction to Enthalpy=                  0.154496
 Thermal correction to Gibbs Free Energy=         0.100704
 Sum of electronic and zero-point Energies=          -3426.487191
 Sum of electronic and thermal Energies=             -3426.475442
 Sum of electronic and thermal Enthalpies=           -3426.474498
 Sum of electronic and thermal Free Energies=        -3426.528290

                     E (Thermal)             CV                S
                      KCal/Mol        Cal/Mol-Kelvin    Cal/Mol-Kelvin
 Total                   96.355             42.494            113.214
 Electronic               0.000              0.000              0.000
 Translational            0.889              2.981             42.496
 Rotational               0.889              2.981             33.051
 Vibrational             94.578             36.533             37.667
 Vibration     1          0.594              1.983              5.735
 Vibration     2          0.594              1.983              5.718
 Vibration     3          0.601              1.960              3.793
 Vibration     4          0.601              1.958              3.708
 Vibration     5          0.619              1.901              2.654
 Vibration     6          0.635              1.847              2.184
 Vibration     7          0.644              1.819              2.006
 Vibration     8          0.666              1.754              1.693
 Vibration     9          0.670              1.742              1.647
 Vibration    10          0.690              1.682              1.440
 Vibration    11          0.748              1.519              1.050
 Vibration    12          0.841              1.284              0.697
 Vibration    13          0.841              1.283              0.696
 Vibration    14          0.882              1.190              0.594
 Vibration    15          0.904              1.142              0.547
 Vibration    16          0.967              1.014              0.435

                           ! Non-Optimized Parameters !
 Normal termination of Gaussian 16 at Wed Aug 14 19:42:47 2024.

 ----------------------------------------------------------------------
 # M062X/def2tzvp int=(grid=ultrafine) pop=nbo7 polar prop=efg volume g
 uess=read geom=check
 ----------------------------------------------------------------------

 ---------
 pyrd8.xyz
 ---------
 Structure from the checkpoint file:  "pyrd8_conf-1.chk"
 Charge =  0 Multiplicity = 1

 SCF Done:  E(RM062X) =  -3429.03886578     A.U. after   12 cycles

  Exact polarizability:     219.727      -5.062     177.739      -0.075       0.338      84.129
 Approx polarizability:     266.093       7.117     236.971      -0.013       0.258     122.914

 Summary of Natural Population Analysis:

                                     Natural Population
             Natural    ---------------------------------------------
  Atom No    Charge        Core      Valence    Rydberg      Total
 --------------------------------------------------------------------
   Br  1    0.04453     27.99996     6.94524    0.01027    34.95547
    C  2    0.17614      1.99999     3.79111    0.03276     5.82386
    N  3   -0.45059      1.99999     5.41517    0.03543     7.45059
    C  4    0.18253      1.99999     3.79449    0.02298     5.81747
    C  5   -0.26671      1.99999     4.24175    0.02496     6.26671
    C  6   -0.02726      1.99999     4.00611    0.02116     6.02726
    N  7   -0.42288      1.99999     5.38771    0.03518     7.42288
    C  8   -0.13818      1.99999     4.10816    0.03003     6.13818
    S  9    0.44837      9.99997     5.51453    0.03713    15.55163
    C 10   -0.24092      1.99999     4.22628    0.01465     6.24092
    C 11    0.04638      1.99999     3.93913    0.01450     5.95362
    C 12   -0.63422      1.99999     4.62471    0.00952     6.63422
    C 13   -0.28475      1.99999     4.26669    0.01806     6.28475
    H 14    0.21088      0.00000     0.78783    0.00129     0.78912
    H 15    0.22088      0.00000     0.77782    0.00131     0.77912
    H 16    0.21963      0.00000     0.77894    0.00143     0.78037
    H 17    0.23287      0.00000     0.76595    0.00118     0.76713
    H 18    0.22423      0.00000     0.77470    0.00107     0.77577
    H 19    0.22432      0.00000     0.77459    0.00109     0.77568
    H 20    0.23474      0.00000     0.76390    0.00136     0.76526
 ====================================================================
 * Total *  0.00000     59.99984    65.68481    0.31536   126.00000

 Normal termination of Gaussian 16 at Wed Aug 14 19:50:14 2024.
 Gaussian 16:  ES64L-G16RevC.01  3-Jul-2019

 --------------------------------------------------------------------
 # M062X/def2tzvp int=(grid=ultrafine) nmr=giao guess=read geom=check
 --------------------------------------------------------------------

 ---------
 pyrd8.xyz
 ---------
 Structure from the checkpoint file:  "pyrd8_conf-1.chk"
 Charge =  0 Multiplicity = 1

                         Standard orientation:
 ---------------------------------------------------------------------
 Center     Atomic      Atomic             Coordinates (Angstroms)
 Number     Number       Type             X           Y           Z
 ---------------------------------------------------------------------
      1         35           0       -2.797833   -1.436633    0.001374
      2          6           0       -1.505616   -0.017027   -0.000946
      3          7           0       -0.240531   -0.375119    0.002804
      4          6           0        0.687944    0.605597   -0.001883
      5          6           0        2.079214    0.165051   -0.000669
      6          6           0        3.243356    0.897625    0.000957
      7          7           0        4.414796    0.184424    0.002248
      8          6           0        4.159091   -1.096420    0.001863
      9         16           0        2.474696   -1.535952    0.000023
     10          6           0        0.332483    1.959702   -0.010538
     11          6           0       -1.017153    2.320797   -0.011513
     12          6           0       -1.434999    3.767466    0.010711
     13          6           0       -1.969385    1.297511   -0.009718
     14          1           0        3.292210    1.979892    0.001757
     15          1           0        4.927292   -1.860540    0.002762
     16          1           0        1.098574    2.726948   -0.018818
     17          1           0       -1.472459    4.138956    1.041321
     18          1           0       -2.427950    3.901888   -0.425140
     19          1           0       -0.726936    4.393488   -0.538689
     20          1           0       -3.031174    1.509810   -0.016592
 ---------------------------------------------------------------------

 SCF Done:  E(RM062X) =  -3429.03886578     A.U. after    1 cycles

      1  Br   Isotropic =  1903.8727   Anisotropy =  1526.8235

      2  C    Isotropic =     1.8546   Anisotropy =   117.2693

      3  N    Isotropic =  -120.2108   Anisotropy =   507.0377

      4  C    Isotropic =    10.3148   Anisotropy =   188.0184

      5  C    Isotropic =    18.1139   Anisotropy =   115.5072

      6  C    Isotropic =    26.1478   Anisotropy =   138.6823

      7  N    Isotropic =  -151.8143   Anisotropy =   539.3846

      8  C    Isotropic =    -0.1906   Anisotropy =   161.8187

      9  S    Isotropic =   122.8135   Anisotropy =   288.2657

     10  C    Isotropic =    48.6225   Anisotropy =   171.0591

     11  C    Isotropic =     9.1046   Anisotropy =   246.9575

     12  C    Isotropic =   163.6248   Anisotropy =    40.1797

     13  C    Isotropic =    38.1373   Anisotropy =   151.5343

     14  H    Isotropic =    22.8324   Anisotropy =     7.6131

     15  H    Isotropic =    22.3946   Anisotropy =     7.1625

     16  H    Isotropic =    23.5725   Anisotropy =    10.6474

     17  H    Isotropic =    29.3680   Anisotropy =     8.2576

     18  H    Isotropic =    29.6199   Anisotropy =     7.5471

     19  H    Isotropic =    29.5351   Anisotropy =     7.8724

     20  H    Isotropic =    24.1499   Anisotropy =    12.1241

 The electronic state is 1-A.
 Alpha  occ. eigenvalues -- -485.37492 -89.94573 -63.35984 -57.17927 -57.17694
 Alpha  occ. eigenvalues --  -57.17680 -14.77148 -14.76174 -10.64446 -10.61769
 Alpha  occ. eigenvalues --  -10.61195 -10.59132 -10.58994 -10.58509 -10.56949
 Alpha  occ. eigenvalues --  -10.56829 -10.55871  -9.02634  -8.30309  -6.85041
 Alpha  occ. eigenvalues --   -6.84176  -6.84129  -6.22192  -6.22008  -6.21894
 Alpha  occ. eigenvalues --   -2.88417  -2.88111  -2.88061  -2.87258  -2.87257
 Alpha  occ. eigenvalues --   -1.09056  -1.07599  -0.94556  -0.93535  -0.88880
 Alpha  occ. eigenvalues --   -0.85819  -0.82583  -0.82354  -0.74958  -0.70136
 Alpha  occ. eigenvalues --   -0.66168  -0.64758  -0.60524  -0.59070  -0.57389
 Alpha  occ. eigenvalues --   -0.52789  -0.51721  -0.50183  -0.49554  -0.49393
 Alpha  occ. eigenvalues --   -0.48340  -0.48182  -0.46687  -0.43509  -0.43017
 Alpha  occ. eigenvalues --   -0.39728  -0.36316  -0.36219  -0.35171  -0.34165
 Alpha  occ. eigenvalues --   -0.33815  -0.33020  -0.28781
 Alpha virt. eigenvalues --   -0.04360  -0.01251   0.02678   0.03305   0.05398
 Alpha virt. eigenvalues --    0.06040   0.07742   0.08818   0.10414   0.10718
 Alpha virt. eigenvalues --    0.10956   0.13024   0.13336   0.14394   0.14846

 Mulliken charges:
               1
     1  Br  -0.094972
     2  C    0.120361
     3  N   -0.262982
     4  C    0.264568
     5  C   -0.009578
     6  C   -0.110455
     7  N   -0.214828
     8  C   -0.100206
     9  S    0.102638
    10  C   -0.232845
    11  C    0.108757
    12  C   -0.479997
    13  C   -0.219470
    14  H    0.144878
    15  H    0.169243
    16  H    0.161833
    17  H    0.172134
    18  H    0.155002
    19  H    0.155560
    20  H    0.170358
 Sum of Mulliken charges =  -0.00000

 Dipole moment (field-independent basis, Debye):
    X=             -0.9778    Y=              3.0153    Z=              0.0375  Tot=              3.1701
 Quadrupole moment (field-independent basis, Debye-Ang):
   XX=            -99.9198   YY=            -81.5625   ZZ=            -97.8268
   XY=             -9.8502   XZ=             -0.0589   YZ=              0.1476

 Normal termination of Gaussian 16 at Wed Aug 14 19:52:52 2024.
