 Gaussian 16, Revision C.01,

 ----------------------------------------------------------------------
 # B3LYP/6-31G(d,p) symmetry=loose empiricaldispersion=GD3BJ int=(grid=
 ultrafine) opt freq=noraman
 ----------------------------------------------------------------------

 ----------
 pyrmd3.xyz
 ----------
 Symbolic Z-matrix:
 Charge =  0 Multiplicity = 1

 SCF Done:  E(RB3LYP) =  -802.587626897     A.U. after   13 cycles
 SCF Done:  E(RB3LYP) =  -802.591477828     A.U. after   12 cycles
 SCF Done:  E(RB3LYP) =  -802.591792973     A.U. after   10 cycles
 SCF Done:  E(RB3LYP) =  -802.591801643     A.U. after    9 cycles
 SCF Done:  E(RB3LYP) =  -802.591811862     A.U. after   10 cycles
 SCF Done:  E(RB3LYP) =  -802.591818265     A.U. after    9 cycles
 Optimization completed.
    -- Stationary point found.
 Normal termination of Gaussian 16 at Wed Aug 14 20:24:17 2024.

 ----------------------------------------------------------------------
 #N Geom=AllCheck Guess=TCheck SCRF=Check GenChk RB3LYP/6-31G(d,p) Freq
 ----------------------------------------------------------------------

 Structure from the checkpoint file:  "pyrmd3_conf-1.chk"
 ----------
 pyrmd3.xyz
 ----------
 Charge =  0 Multiplicity = 1

 SCF Done:  E(RB3LYP) =  -802.591818265     A.U. after    1 cycles

                      1                      2                      3
                      A                      A                      A
 Frequencies --     34.2497                77.3621               193.2286
 Red. masses --      2.7386                 5.4017                 4.5314
 Frc consts  --      0.0019                 0.0190                 0.0997
 IR Inten    --      0.0368                 0.0200                 0.6829

                      4                      5                      6
                      A                      A                      A
 Frequencies --    206.6115               284.7612               375.0128
 Red. masses --      1.3590                 2.2131                 6.4512
 Frc consts  --      0.0342                 0.1057                 0.5345
 IR Inten    --      0.0102                 0.2929                 3.0196

                      7                      8                      9
                      A                      A                      A
 Frequencies --    389.0506               419.8837               432.4635
 Red. masses --      3.2764                 4.2418                 4.9055
 Frc consts  --      0.2922                 0.4406                 0.5405
 IR Inten    --      2.7515                 0.0338                 5.3550

                     10                     11                     12
                      A                      A                      A
 Frequencies --    547.6181               653.1998               654.4191
 Red. masses --      3.5692                 4.1495                 9.5419
 Frc consts  --      0.6306                 1.0431                 2.4077
 IR Inten    --      1.6939                14.1723                 9.2522

                     13                     14                     15
                      A                      A                      A
 Frequencies --    793.7664               793.9884               841.8062
 Red. masses --      6.4335                 1.1654                 6.6189
 Frc consts  --      2.3883                 0.4329                 2.7635
 IR Inten    --     12.7055                 1.7463                23.1894

                     16                     17                     18
                      A                      A                      A
 Frequencies --    951.2029               977.3082               993.7766
 Red. masses --      1.5318                 2.5335                 1.3647
 Frc consts  --      0.8166                 1.4257                 0.7941
 IR Inten    --      5.6726                 3.1384                 0.0008

                     19                     20                     21
                      A                      A                      A
 Frequencies --   1061.6975              1080.0389              1089.8653
 Red. masses --      3.6715                 1.4621                 1.8950
 Frc consts  --      2.4384                 1.0049                 1.3262
 IR Inten    --      1.1958                 0.5535                 9.1603

                     22                     23                     24
                      A                      A                      A
 Frequencies --   1197.2320              1255.3337              1264.2900
 Red. masses --      7.7901                 3.9768                 1.8776
 Frc consts  --      6.5788                 3.6923                 1.7683
 IR Inten    --    189.4192                 1.5045                37.7145

                     25                     26                     27
                      A                      A                      A
 Frequencies --   1287.6876              1300.7013              1363.9773
 Red. masses --      1.8688                 1.5153                 1.5121
 Frc consts  --      1.8258                 1.5105                 1.6574
 IR Inten    --      4.2628                 6.8184                 4.8923

                     28                     29                     30
                      A                      A                      A
 Frequencies --   1425.8030              1427.9773              1448.8897
 Red. masses --      1.2175                 2.0775                 2.8270
 Frc consts  --      1.4582                 2.4959                 3.4966
 IR Inten    --      4.3594                 3.1014               231.3616

                     31                     32                     33
                      A                      A                      A
 Frequencies --   1502.0754              1511.3645              1522.0792
 Red. masses --      1.0617                 1.0395                 1.0861
 Frc consts  --      1.4114                 1.3990                 1.4826
 IR Inten    --      4.2016                 9.7535                 6.1799

                     34                     35                     36
                      A                      A                      A
 Frequencies --   1592.4025              1637.7884              3047.7476
 Red. masses --      6.9020                 5.3122                 1.0465
 Frc consts  --     10.3118                 8.3954                 5.7270
 IR Inten    --     78.6085                62.1942                18.5057

                     37                     38                     39
                      A                      A                      A
 Frequencies --   3050.4753              3087.1618              3125.9604
 Red. masses --      1.0482                 1.1041                 1.1036
 Frc consts  --      5.7466                 6.1999                 6.3539
 IR Inten    --     30.6063                 5.3533                26.5161

                     40                     41                     42
                      A                      A                      A
 Frequencies --   3127.5588              3161.3743              3163.2369
 Red. masses --      1.1032                 1.0911                 1.0920
 Frc consts  --      6.3578                 6.4249                 6.4380
 IR Inten    --     35.1452                21.3345                16.6947

 - Thermochemistry -
 -------------------
 Temperature   298.150 Kelvin.  Pressure   1.00000 Atm.
 Atom     1 has atomic number 17 and mass  34.96885

 Molecular mass:   142.02978 amu.
 Principal axes and moments of inertia in atomic units:
                                 1                 2                 3
     Eigenvalues --          392.282513       2595.613154       2814.503296
           X                   0.999961         -0.000001          0.008860
           Y                   0.000001          1.000000         -0.000003
           Z                  -0.008860          0.000003          0.999961
 This molecule is an asymmetric top.
 Rotational symmetry number  1.
 Rotational temperatures (Kelvin)      0.22079     0.03337     0.03077
 Rotational constants (GHZ):           4.60062     0.69530     0.64123
 Zero-point vibrational energy     325099.7 (Joules/Mol)
                                   77.70070 (Kcal/Mol)
 Warning -- explicit consideration of  10 degrees of freedom as
           vibrations may cause significant error
 Vibrational temperatures:     49.28   111.31   278.01   297.27   409.71
          (Kelvin)            539.56   559.76   604.12   622.22   787.90
                              939.81   941.56  1142.05  1142.37  1211.17
                             1368.57  1406.13  1429.82  1527.55  1553.94
                             1568.07  1722.55  1806.15  1819.03  1852.70
                             1871.42  1962.46  2051.41  2054.54  2084.63
                             2161.15  2174.52  2189.93  2291.11  2356.41
                             4385.03  4388.95  4441.74  4497.56  4499.86
                             4548.51  4551.19

 Zero-point correction=                           0.123824 (Hartree/Particle)
 Thermal correction to Energy=                    0.132092
 Thermal correction to Enthalpy=                  0.133036
 Thermal correction to Gibbs Free Energy=         0.089331
 Sum of electronic and zero-point Energies=           -802.467994
 Sum of electronic and thermal Energies=              -802.459726
 Sum of electronic and thermal Enthalpies=            -802.458782
 Sum of electronic and thermal Free Energies=         -802.502487

                     E (Thermal)             CV                S
                      KCal/Mol        Cal/Mol-Kelvin    Cal/Mol-Kelvin
 Total                   82.889             29.711             91.985
 Electronic               0.000              0.000              0.000
 Translational            0.889              2.981             40.764
 Rotational               0.889              2.981             29.440
 Vibrational             81.112             23.750             21.781
 Vibration     1          0.594              1.983              5.567
 Vibration     2          0.599              1.964              3.957
 Vibration     3          0.635              1.849              2.197
 Vibration     4          0.641              1.830              2.073
 Vibration     5          0.683              1.702              1.505
 Vibration     6          0.746              1.523              1.059
 Vibration     7          0.757              1.494              1.004
 Vibration     8          0.783              1.427              0.892
 Vibration     9          0.793              1.400              0.851
 Vibration    10          0.903              1.145              0.549

 Optimization completed.
    -- Stationary point found.
 Normal termination of Gaussian 16 at Wed Aug 14 20:24:57 2024.

 ----------------------------------------------------------------------
 # M062X/def2tzvp int=(grid=ultrafine) pop=nbo7 polar prop=efg volume g
 uess=read geom=check
 ----------------------------------------------------------------------

 ----------
 pyrmd3.xyz
 ----------
 Structure from the checkpoint file:  "pyrmd3_conf-1.chk"
 Charge =  0 Multiplicity = 1

 SCF Done:  E(RM062X) =  -802.532663534     A.U. after   11 cycles

  Exact polarizability:     134.427       0.000      85.733      -3.875       0.000      62.072
 Approx polarizability:     149.351       0.000     123.356      -7.619       0.001      82.352

 Summary of Natural Population Analysis:

                                     Natural Population
             Natural    ---------------------------------------------
  Atom No    Charge        Core      Valence    Rydberg      Total
 --------------------------------------------------------------------
   Cl  1    0.00951      9.99998     6.97453    0.01598    16.99049
    C  2    0.36858      1.99999     3.59513    0.03630     5.63142
    N  3   -0.43997      1.99999     5.40476    0.03522     7.43997
    C  4    0.07946      1.99999     3.89908    0.02147     5.92054
    C  5   -0.10611      1.99999     4.08950    0.01662     6.10611
    C  6   -0.41880      1.99999     4.40704    0.01176     6.41880
    C  7   -0.59450      1.99999     4.58600    0.00851     6.59450
    C  8    0.07946      1.99999     3.89907    0.02147     5.92054
    N  9   -0.43997      1.99999     5.40476    0.03522     7.43997
    H 10    0.20021      0.00000     0.79808    0.00171     0.79979
    H 11    0.21559      0.00000     0.78260    0.00180     0.78441
    H 12    0.21559      0.00000     0.78261    0.00180     0.78441
    H 13    0.21433      0.00000     0.78466    0.00102     0.78567
    H 14    0.20820      0.00000     0.79061    0.00118     0.79180
    H 15    0.20820      0.00000     0.79062    0.00118     0.79180
    H 16    0.20021      0.00000     0.79808    0.00171     0.79979
 ====================================================================
 * Total *  0.00000     25.99992    47.78712    0.21296    74.00000

 Normal termination of Gaussian 16 at Wed Aug 14 20:27:27 2024.
 Gaussian 16:  ES64L-G16RevC.01  3-Jul-2019

 --------------------------------------------------------------------
 # M062X/def2tzvp int=(grid=ultrafine) nmr=giao guess=read geom=check
 --------------------------------------------------------------------

 ----------
 pyrmd3.xyz
 ----------
 Structure from the checkpoint file:  "pyrmd3_conf-1.chk"
 Charge =  0 Multiplicity = 1

                         Standard orientation:
 ---------------------------------------------------------------------
 Center     Atomic      Atomic             Coordinates (Angstroms)
 Number     Number       Type             X           Y           Z
 ---------------------------------------------------------------------
      1         17           0       -3.090523   -0.000030    0.220303
      2          6           0       -1.353661    0.000001   -0.012845
      3          7           0       -0.777658    1.193444   -0.091913
      4          6           0        0.548854    1.176971   -0.263975
      5          6           0        1.296216    0.000045   -0.357541
      6          6           0        2.795207    0.000063   -0.501656
      7          6           0        3.510820   -0.000095    0.859199
      8          6           0        0.548881   -1.176908   -0.264051
      9          7           0       -0.777628   -1.193426   -0.091990
     10          1           0        1.034009    2.149306   -0.335429
     11          1           0        3.104498   -0.878348   -1.079088
     12          1           0        3.104495    0.878608   -1.078884
     13          1           0        4.596822   -0.000082    0.728068
     14          1           0        3.237053    0.883269    1.444247
     15          1           0        3.237051   -0.883593    1.444044
     16          1           0        1.034062   -2.149226   -0.335568
 ---------------------------------------------------------------------

 SCF Done:  E(RM062X) =  -802.532663534     A.U. after    1 cycles

      1  Cl   Isotropic =   550.5290   Anisotropy =   692.9069

      2  C    Isotropic =    -5.0216   Anisotropy =   105.0544

      3  N    Isotropic =  -114.2763   Anisotropy =   533.7266

      4  C    Isotropic =     0.9114   Anisotropy =   201.0963

      5  C    Isotropic =    27.0128   Anisotropy =   227.8200

      6  C    Isotropic =   158.8422   Anisotropy =    22.6787

      7  C    Isotropic =   165.7460   Anisotropy =    31.8709

      8  C    Isotropic =     0.9104   Anisotropy =   201.1007

      9  N    Isotropic =  -114.2775   Anisotropy =   533.7287

     10  H    Isotropic =    22.6528   Anisotropy =     9.4045

     11  H    Isotropic =    29.3184   Anisotropy =     7.6080

     12  H    Isotropic =    29.3184   Anisotropy =     7.6080

     13  H    Isotropic =    30.4998   Anisotropy =    10.7612

     14  H    Isotropic =    30.8791   Anisotropy =     7.6294

     15  H    Isotropic =    30.8790   Anisotropy =     7.6295

     16  H    Isotropic =    22.6527   Anisotropy =     9.4048

 The electronic state is 1-A.
 Alpha  occ. eigenvalues -- -102.64333 -14.77611 -14.77609 -10.67290 -10.61011
 Alpha  occ. eigenvalues --  -10.61010 -10.57807 -10.56629 -10.54807  -9.80617
 Alpha  occ. eigenvalues --   -7.52811  -7.52310  -7.52262  -1.12722  -1.01691
 Alpha  occ. eigenvalues --   -0.96590  -0.92004  -0.84666  -0.76929  -0.75259
 Alpha  occ. eigenvalues --   -0.70271  -0.61944  -0.60688  -0.54531  -0.52906
 Alpha  occ. eigenvalues --   -0.52485  -0.49986  -0.49085  -0.47339  -0.45105
 Alpha  occ. eigenvalues --   -0.43112  -0.40504  -0.39478  -0.39228  -0.38190
 Alpha  occ. eigenvalues --   -0.33725  -0.32559
 Alpha virt. eigenvalues --   -0.02717  -0.00849   0.05163   0.08347   0.08966
 Alpha virt. eigenvalues --    0.09486   0.10362   0.11070   0.13430   0.13618
 Alpha virt. eigenvalues --    0.15284   0.15501   0.17979   0.19573   0.19699

 Mulliken charges:
               1
     1  Cl  -0.051856
     2  C    0.185024
     3  N   -0.214767
     4  C   -0.033193
     5  C    0.041433
     6  C   -0.350670
     7  C   -0.396109
     8  C   -0.033196
     9  N   -0.214767
    10  H    0.161570
    11  H    0.153150
    12  H    0.153145
    13  H    0.147607
    14  H    0.145527
    15  H    0.145527
    16  H    0.161573
 Sum of Mulliken charges =  -0.00000

 Dipole moment (field-independent basis, Debye):
    X=              4.6378    Y=              0.0001    Z=             -0.4353  Tot=              4.6582
 Quadrupole moment (field-independent basis, Debye-Ang):
   XX=            -58.1643   YY=            -60.9685   ZZ=            -60.4540
   XY=              0.0001   XZ=             -0.7360   YZ=              0.0000

 Normal termination of Gaussian 16 at Wed Aug 14 20:28:23 2024.
