 Gaussian 16, Revision C.01,

 ----------------------------------------------------------------------
 # B3LYP/6-31G(d,p) symmetry=loose empiricaldispersion=GD3BJ int=(grid=
 ultrafine) opt freq=noraman
 ----------------------------------------------------------------------

 ----------
 pyrmd6.xyz
 ----------
 Symbolic Z-matrix:
 Charge =  0 Multiplicity = 1

 SCF Done:  E(RB3LYP) =  -763.265879304     A.U. after   14 cycles
 SCF Done:  E(RB3LYP) =  -763.269775188     A.U. after   12 cycles
 SCF Done:  E(RB3LYP) =  -763.270094446     A.U. after   10 cycles
 SCF Done:  E(RB3LYP) =  -763.270096785     A.U. after   10 cycles
 SCF Done:  E(RB3LYP) =  -763.270114791     A.U. after   10 cycles
 SCF Done:  E(RB3LYP) =  -763.270119533     A.U. after    9 cycles
 Optimization completed.
    -- Stationary point found.
 Normal termination of Gaussian 16 at Wed Aug 14 20:29:00 2024.

 ----------------------------------------------------------------------
 #N Geom=AllCheck Guess=TCheck SCRF=Check GenChk RB3LYP/6-31G(d,p) Freq
 ----------------------------------------------------------------------

 Structure from the checkpoint file:  "pyrmd6_conf-1.chk"
 ----------
 pyrmd6.xyz
 ----------
 Charge =  0 Multiplicity = 1

 SCF Done:  E(RB3LYP) =  -763.270119533     A.U. after    1 cycles

                      1                      2                      3
                      A                      A                      A
 Frequencies --     20.4510               102.0395               258.0106
 Red. masses --      1.0395                 5.3026                 4.2665
 Frc consts  --      0.0003                 0.0325                 0.1673
 IR Inten    --      0.4518                 0.6004                 0.2970

                      4                      5                      6
                      A                      A                      A
 Frequencies --    316.4973               385.5930               407.1771
 Red. masses --      4.4256                 4.0745                11.0650
 Frc consts  --      0.2612                 0.3569                 1.0809
 IR Inten    --      0.3526                 2.2950                 7.4017

                      7                      8                      9
                      A                      A                      A
 Frequencies --    420.3059               496.5618               653.7601
 Red. masses --      4.2616                 2.7464                 5.6180
 Frc consts  --      0.4436                 0.3990                 1.4147
 IR Inten    --      0.0145                 0.5159                15.6037

                     10                     11                     12
                      A                      A                      A
 Frequencies --    654.4724               787.2368               853.0586
 Red. masses --      9.6578                 7.4708                 8.4123
 Frc consts  --      2.4373                 2.7279                 3.6068
 IR Inten    --      9.7377                12.8511                25.7949

                     13                     14                     15
                      A                      A                      A
 Frequencies --    931.4501               994.5648              1016.5611
 Red. masses --      1.3819                 1.3661                 1.4024
 Frc consts  --      0.7064                 0.7962                 0.8539
 IR Inten    --      4.2966                 0.0015                 4.0698

                     16                     17                     18
                      A                      A                      A
 Frequencies --   1060.8532              1072.8158              1197.4953
 Red. masses --      3.8299                 1.5593                 8.4311
 Frc consts  --      2.5395                 1.0574                 7.1234
 IR Inten    --      0.1180                 8.3721               175.8401

                     19                     20                     21
                      A                      A                      A
 Frequencies --   1262.2512              1272.5500              1295.5701
 Red. masses --      9.0849                 2.0824                 1.9457
 Frc consts  --      8.5283                 1.9869                 1.9242
 IR Inten    --      1.1419                36.5809                10.0831

                     22                     23                     24
                      A                      A                      A
 Frequencies --   1416.4707              1431.6672              1450.8918
 Red. masses --      2.1029                 1.2415                 2.9014
 Frc consts  --      2.4859                 1.4992                 3.5985
 IR Inten    --      1.9445                 3.3090               243.3464

                     25                     26                     27
                      A                      A                      A
 Frequencies --   1500.0294              1503.0627              1594.0037
 Red. masses --      1.0481                 1.1128                 5.6622
 Frc consts  --      1.3894                 1.4813                 8.4765
 IR Inten    --      6.6048                 1.4312                88.5555

                     28                     29                     30
                      A                      A                      A
 Frequencies --   1640.1280              3047.0911              3109.4926
 Red. masses --      5.3013                 1.0387                 1.0982
 Frc consts  --      8.4022                 5.6822                 6.2559
 IR Inten    --     52.0042                18.8577                13.0558

                     31                     32                     33
                      A                      A                      A
 Frequencies --   3134.0760              3163.6399              3165.5430
 Red. masses --      1.1031                 1.0913                 1.0922
 Frc consts  --      6.3840                 6.4351                 6.4483
 IR Inten    --      9.2471                22.4874                16.8216

 - Thermochemistry -
 -------------------
 Temperature   298.150 Kelvin.  Pressure   1.00000 Atm.
 Atom     1 has atomic number  6 and mass  12.00000

 Molecular mass:   128.01413 amu.
 Principal axes and moments of inertia in atomic units:
                                 1                 2                 3
     Eigenvalues --          305.587265       1769.698043       2063.980039
           X                   1.000000          0.000000         -0.000506
           Y                  -0.000000          1.000000          0.000000
           Z                   0.000506         -0.000000          1.000000
 This molecule is an asymmetric top.
 Rotational symmetry number  1.
 Rotational temperatures (Kelvin)      0.28343     0.04894     0.04196
 Rotational constants (GHZ):           5.90581     1.01980     0.87440
 Zero-point vibrational energy     248915.2 (Joules/Mol)
                                   59.49216 (Kcal/Mol)
 Warning -- explicit consideration of   8 degrees of freedom as
           vibrations may cause significant error
 Vibrational temperatures:     29.42   146.81   371.22   455.37   554.78
          (Kelvin)            585.84   604.73   714.44   940.62   941.64
                             1132.66  1227.36  1340.15  1430.96  1462.60
                             1526.33  1543.54  1722.93  1816.10  1830.92
                             1864.04  2037.99  2059.85  2087.51  2158.21
                             2162.57  2293.42  2359.78  4384.08  4473.87
                             4509.24  4551.77  4554.51

 Zero-point correction=                           0.094807 (Hartree/Particle)
 Thermal correction to Energy=                    0.101964
 Thermal correction to Enthalpy=                  0.102908
 Thermal correction to Gibbs Free Energy=         0.061449
 Sum of electronic and zero-point Energies=           -763.175313
 Sum of electronic and thermal Energies=              -763.168155
 Sum of electronic and thermal Enthalpies=            -763.167211
 Sum of electronic and thermal Free Energies=         -763.208671

                     E (Thermal)             CV                S
                      KCal/Mol        Cal/Mol-Kelvin    Cal/Mol-Kelvin
 Total                   63.984             25.043             87.260
 Electronic               0.000              0.000              0.000
 Translational            0.889              2.981             40.454
 Rotational               0.889              2.981             28.503
 Vibrational             62.206             19.082             18.303
 Vibration     1          0.593              1.986              6.590
 Vibration     2          0.604              1.948              3.415
 Vibration     3          0.667              1.749              1.675
 Vibration     4          0.703              1.642              1.328
 Vibration     5          0.754              1.501              1.017
 Vibration     6          0.772              1.455              0.937
 Vibration     7          0.783              1.426              0.891
 Vibration     8          0.852              1.258              0.667

 Optimization completed.
    -- Stationary point found.
 Normal termination of Gaussian 16 at Wed Aug 14 20:29:28 2024.

 ----------------------------------------------------------------------
 # M062X/def2tzvp int=(grid=ultrafine) pop=nbo7 polar prop=efg volume g
 uess=read geom=check
 ----------------------------------------------------------------------

 ----------
 pyrmd6.xyz
 ----------
 Structure from the checkpoint file:  "pyrmd6_conf-1.chk"
 Charge =  0 Multiplicity = 1

 SCF Done:  E(RM062X) =  -763.225692581     A.U. after   12 cycles

  Exact polarizability:     118.643       0.001      77.193      -0.359      -0.000      49.107
 Approx polarizability:     135.806       0.001     109.917      -0.352      -0.000      67.444

 Summary of Natural Population Analysis:

                                     Natural Population
             Natural    ---------------------------------------------
  Atom No    Charge        Core      Valence    Rydberg      Total
 --------------------------------------------------------------------
    C  1   -0.62976      1.99999     4.61990    0.00987     6.62976
    C  2   -0.11233      1.99999     4.09761    0.01473     6.11233
    C  3    0.08175      1.99999     3.89729    0.02097     5.91825
    N  4   -0.43931      1.99999     5.40410    0.03522     7.43931
    C  5    0.36828      1.99999     3.59542    0.03630     5.63172
   Cl  6    0.00998      9.99998     6.97403    0.01601    16.99002
    N  7   -0.43931      1.99999     5.40409    0.03522     7.43931
    C  8    0.08176      1.99999     3.89728    0.02097     5.91824
    H  9    0.22490      0.00000     0.77392    0.00118     0.77510
    H 10    0.22908      0.00000     0.76964    0.00128     0.77092
    H 11    0.22489      0.00000     0.77393    0.00118     0.77511
    H 12    0.20003      0.00000     0.79826    0.00170     0.79997
    H 13    0.20004      0.00000     0.79826    0.00170     0.79996
 ====================================================================
 * Total *  0.00000     23.99992    41.80375    0.19633    66.00000

 Normal termination of Gaussian 16 at Wed Aug 14 20:31:01 2024.
 Gaussian 16:  ES64L-G16RevC.01  3-Jul-2019

 --------------------------------------------------------------------
 # M062X/def2tzvp int=(grid=ultrafine) nmr=giao guess=read geom=check
 --------------------------------------------------------------------

 ----------
 pyrmd6.xyz
 ----------
 Structure from the checkpoint file:  "pyrmd6_conf-1.chk"
 Charge =  0 Multiplicity = 1

                         Standard orientation:
 ---------------------------------------------------------------------
 Center     Atomic      Atomic             Coordinates (Angstroms)
 Number     Number       Type             X           Y           Z
 ---------------------------------------------------------------------
      1          6           0       -3.251725   -0.000000    0.018001
      2          6           0       -1.748620    0.000003   -0.005966
      3          6           0       -0.994786    1.176854   -0.011408
      4          7           0        0.342658    1.192972   -0.008749
      5          6           0        0.924568    0.000002   -0.002533
      6         17           0        2.676750   -0.000001    0.009465
      7          7           0        0.342655   -1.192971   -0.008749
      8          6           0       -0.994786   -1.176853   -0.011408
      9          1           0       -3.656002   -0.885085   -0.480668
     10          1           0       -3.629537   -0.000675    1.046926
     11          1           0       -3.655974    0.885746   -0.479508
     12          1           0       -1.484174    2.149451   -0.022643
     13          1           0       -1.484170   -2.149453   -0.022643
 ---------------------------------------------------------------------

 SCF Done:  E(RM062X) =  -763.225692581     A.U. after    1 cycles

      1  C    Isotropic =   170.3011   Anisotropy =    29.7393

      2  C    Isotropic =    34.6682   Anisotropy =   219.2077

      3  C    Isotropic =     0.5425   Anisotropy =   200.5718

      4  N    Isotropic =  -113.2588   Anisotropy =   532.3107

      5  C    Isotropic =    -4.9112   Anisotropy =   105.4261

      6  Cl   Isotropic =   550.9446   Anisotropy =   691.5253

      7  N    Isotropic =  -113.2579   Anisotropy =   532.3228

      8  C    Isotropic =     0.5396   Anisotropy =   200.5947

      9  H    Isotropic =    29.6263   Anisotropy =     7.9284

     10  H    Isotropic =    29.5293   Anisotropy =     8.6994

     11  H    Isotropic =    29.6269   Anisotropy =     7.9274

     12  H    Isotropic =    22.6504   Anisotropy =     8.8453

     13  H    Isotropic =    22.6500   Anisotropy =     8.8463

 The electronic state is 1-A.
 Alpha  occ. eigenvalues -- -102.64374 -14.77669 -14.77668 -10.67335 -10.61069
 Alpha  occ. eigenvalues --  -10.61068 -10.58189 -10.56216  -9.80658  -7.52853
 Alpha  occ. eigenvalues --   -7.52351  -7.52303  -1.12792  -1.01753  -0.96503
 Alpha  occ. eigenvalues --   -0.90996  -0.80770  -0.76980  -0.71951  -0.61848
 Alpha  occ. eigenvalues --   -0.60779  -0.54086  -0.51504  -0.50564  -0.50207
 Alpha  occ. eigenvalues --   -0.49069  -0.47956  -0.40648  -0.39735  -0.39572
 Alpha  occ. eigenvalues --   -0.38232  -0.33802  -0.32635
 Alpha virt. eigenvalues --   -0.02812  -0.00855   0.05731   0.08376   0.10162
 Alpha virt. eigenvalues --    0.10386   0.11027   0.13099   0.14096   0.16254
 Alpha virt. eigenvalues --    0.17057   0.19216   0.19659   0.21593   0.21833

 Mulliken charges:
               1
     1  C   -0.465696
     2  C    0.042858
     3  C   -0.034509
     4  N   -0.216806
     5  C    0.182921
     6  Cl  -0.051117
     7  N   -0.216803
     8  C   -0.034491
     9  H    0.154502
    10  H    0.167994
    11  H    0.154471
    12  H    0.158333
    13  H    0.158342
 Sum of Mulliken charges =  -0.00000

 Dipole moment (field-independent basis, Debye):
    X=             -4.5536    Y=             -0.0001    Z=              0.0383  Tot=              4.5537
 Quadrupole moment (field-independent basis, Debye-Ang):
   XX=            -48.1777   YY=            -54.4139   ZZ=            -53.8178
   XY=              0.0002   XZ=             -0.0709   YZ=              0.0000

 Normal termination of Gaussian 16 at Wed Aug 14 20:31:36 2024.
