 Gaussian 16, Revision C.01,

 ----------------------------------------------------------------------
 # B3LYP/6-31G(d,p) symmetry=loose empiricaldispersion=GD3BJ int=(grid=
 ultrafine) opt freq=noraman
 ----------------------------------------------------------------------

 ---------
 pyrz1.xyz
 ---------
 Symbolic Z-matrix:
 Charge =  0 Multiplicity = 1

 SCF Done:  E(RB3LYP) =  -991.146171220     A.U. after   15 cycles
 SCF Done:  E(RB3LYP) =  -991.153674013     A.U. after   13 cycles
 SCF Done:  E(RB3LYP) =  -991.154429051     A.U. after   12 cycles
 SCF Done:  E(RB3LYP) =  -991.154510733     A.U. after   11 cycles
 SCF Done:  E(RB3LYP) =  -991.154515584     A.U. after    9 cycles
 SCF Done:  E(RB3LYP) =  -991.154515714     A.U. after    9 cycles
 SCF Done:  E(RB3LYP) =  -991.154517831     A.U. after    8 cycles
 Optimization completed.
    -- Stationary point found.
 Normal termination of Gaussian 16 at Wed Aug 14 20:32:11 2024.

 ----------------------------------------------------------------------
 #N Geom=AllCheck Guess=TCheck SCRF=Check GenChk RB3LYP/6-31G(d,p) Freq
 ----------------------------------------------------------------------

 Structure from the checkpoint file:  "pyrz1_conf-2.chk"
 ---------
 pyrz1.xyz
 ---------
 Charge =  0 Multiplicity = 1

 SCF Done:  E(RB3LYP) =  -991.154519827     A.U. after    4 cycles

                      1                      2                      3
                     A"                     A"                     A"
 Frequencies --     36.8642                62.2796               120.0353
 Red. masses --      5.4852                 6.2650                 1.3574
 Frc consts  --      0.0044                 0.0143                 0.0115
 IR Inten    --      2.0146                 0.0668                 1.7765

                      4                      5                      6
                     A'                     A"                     A"
 Frequencies --    130.7706               137.9646               149.8513
 Red. masses --      5.1019                 2.2948                 1.0471
 Frc consts  --      0.0514                 0.0257                 0.0139
 IR Inten    --      1.0501                 2.3391                 0.1648

                      7                      8                      9
                     A"                     A'                     A'
 Frequencies --    211.3352               251.6672               287.8821
 Red. masses --      3.9666                 4.6213                 6.0673
 Frc consts  --      0.1044                 0.1725                 0.2963
 IR Inten    --      0.1858                 1.3827                 4.6710

                     10                     11                     12
                     A'                     A"                     A'
 Frequencies --    311.0441               319.9090               385.6231
 Red. masses --      5.6099                 6.0967                 5.7756
 Frc consts  --      0.3198                 0.3676                 0.5060
 IR Inten    --     15.3686                 4.9821                 1.4338

                     13                     14                     15
                     A"                     A'                     A'
 Frequencies --    466.3547               503.5690               525.2054
 Red. masses --      7.6608                 7.2820                 5.6641
 Frc consts  --      0.9817                 1.0880                 0.9205
 IR Inten    --     11.6118                11.7809                 5.8325

                     16                     17                     18
                     A"                     A'                     A'
 Frequencies --    552.0179               588.6750               705.6351
 Red. masses --      4.3480                 6.8386                 8.2132
 Frc consts  --      0.7806                 1.3963                 2.4095
 IR Inten    --      4.1172                 5.8580                 2.4405

                     19                     20                     21
                     A"                     A"                     A'
 Frequencies --    740.8353               801.7055               805.4633
 Red. masses --      7.1887                 6.3219                 5.6676
 Frc consts  --      2.3246                 2.3940                 2.1664
 IR Inten    --      3.4536                 5.6697                 9.2706

                     22                     23                     24
                     A'                     A"                     A'
 Frequencies --    935.9571               949.5815              1002.9894
 Red. masses --      6.4530                 1.4492                 1.8883
 Frc consts  --      3.3306                 0.7699                 1.1192
 IR Inten    --     13.4124                 4.1248                16.8394

                     25                     26                     27
                     A'                     A"                     A'
 Frequencies --   1050.0849              1059.9999              1095.0342
 Red. masses --      5.0258                 1.5483                 5.9291
 Frc consts  --      3.2652                 1.0250                 4.1889
 IR Inten    --     45.7539                 2.6477               162.5668

                     28                     29                     30
                     A"                     A'                     A'
 Frequencies --   1180.1104              1192.8261              1227.2063
 Red. masses --      1.2759                 2.2272                 2.2115
 Frc consts  --      1.0469                 1.8671                 1.9624
 IR Inten    --      0.8520               148.5824               230.0459

                     31                     32                     33
                     A'                     A'                     A'
 Frequencies --   1239.5604              1276.1039              1312.0648
 Red. masses --      3.1897                 6.8079                 3.6063
 Frc consts  --      2.8876                 6.5318                 3.6578
 IR Inten    --     15.2970                20.2066               252.1054

                     34                     35                     36
                     A'                     A'                     A'
 Frequencies --   1397.3586              1425.5053              1449.8008
 Red. masses --      2.5746                 1.7278                 2.1829
 Frc consts  --      2.9619                 2.0687                 2.7034
 IR Inten    --     97.0960                40.6085                24.4166

                     37                     38                     39
                     A'                     A"                     A"
 Frequencies --   1481.5916              1492.7060              1495.4355
 Red. masses --      1.1952                 1.0434                 1.0462
 Frc consts  --      1.5458                 1.3697                 1.3784
 IR Inten    --     17.9529                 8.3078                 6.7936

                     40                     41                     42
                     A'                     A'                     A'
 Frequencies --   1499.8728              1509.7561              1592.2089
 Red. masses --      1.3870                 1.0556                 5.4220
 Frc consts  --      1.8384                 1.4176                 8.0986
 IR Inten    --      7.9806                 7.4469                12.0564

                     43                     44                     45
                     A'                     A'                     A'
 Frequencies --   1601.1776              1835.1947              3057.1800
 Red. masses --     10.8342                12.0164                 1.0376
 Frc consts  --     16.3654                23.8445                 5.7138
 IR Inten    --     32.7430               203.5459                 4.9560

                     46                     47                     48
                     A'                     A"                     A"
 Frequencies --   3068.0892              3115.7507              3146.5825
 Red. masses --      1.0297                 1.1003                 1.1071
 Frc consts  --      5.7109                 6.2932                 6.4583
 IR Inten    --     34.2849                 6.6302                17.8610

                     49                     50                     51
                     A'                     A'                     A'
 Frequencies --   3170.3841              3180.8177              3227.8431
 Red. masses --      1.1023                 1.1073                 1.0927
 Frc consts  --      6.5282                 6.6006                 6.7077
 IR Inten    --      3.8993                14.2750                 3.8644

 - Thermochemistry -
 -------------------
 Temperature   298.150 Kelvin.  Pressure   1.00000 Atm.
 Atom     1 has atomic number 17 and mass  34.96885

 Molecular mass:   186.01961 amu.
 Principal axes and moments of inertia in atomic units:
                                 1                 2                 3
     Eigenvalues --          814.702288       4406.422847       5198.628268
           X                   0.040809          0.999167          0.000000
           Y                   0.999167         -0.040809         -0.000000
           Z                   0.000000         -0.000000          1.000000
 This molecule is an asymmetric top.
 Rotational symmetry number  1.
 Warning -- assumption of classical behavior for rotation
           may cause significant error
 Rotational temperatures (Kelvin)      0.10631     0.01966     0.01666
 Rotational constants (GHZ):           2.21522     0.40957     0.34716
 Zero-point vibrational energy     361053.7 (Joules/Mol)
                                   86.29390 (Kcal/Mol)
 Warning -- explicit consideration of  17 degrees of freedom as
           vibrations may cause significant error
 Vibrational temperatures:     53.04    89.61   172.70   188.15   198.50
          (Kelvin)            215.60   304.06   362.09   414.20   447.52
                              460.28   554.83   670.98   724.52   755.65
                              794.23   846.97  1015.25  1065.90  1153.48
                             1158.88  1346.63  1366.24  1443.08  1510.84
                             1525.10  1575.51  1697.92  1716.21  1765.68
                             1783.45  1836.03  1887.77  2010.49  2050.98
                             2085.94  2131.68  2147.67  2151.60  2157.98
                             2172.20  2290.83  2303.74  2640.44  4398.60
                             4414.30  4482.87  4527.23  4561.48  4576.49
                             4644.15

 Zero-point correction=                           0.137518 (Hartree/Particle)
 Thermal correction to Energy=                    0.149043
 Thermal correction to Enthalpy=                  0.149987
 Thermal correction to Gibbs Free Energy=         0.098675
 Sum of electronic and zero-point Energies=           -991.017002
 Sum of electronic and thermal Energies=              -991.005477
 Sum of electronic and thermal Enthalpies=            -991.004533
 Sum of electronic and thermal Free Energies=         -991.055845

                     E (Thermal)             CV                S
                      KCal/Mol        Cal/Mol-Kelvin    Cal/Mol-Kelvin
 Total                   93.526             40.561            107.995
 Electronic               0.000              0.000              0.000
 Translational            0.889              2.981             41.568
 Rotational               0.889              2.981             31.301
 Vibrational             91.748             34.599             35.125
 Vibration     1          0.594              1.982              5.421
 Vibration     2          0.597              1.972              4.384
 Vibration     3          0.609              1.933              3.100
 Vibration     4          0.612              1.923              2.935
 Vibration     5          0.614              1.915              2.832
 Vibration     6          0.618              1.903              2.674
 Vibration     7          0.643              1.824              2.032
 Vibration     8          0.664              1.760              1.719
 Vibration     9          0.685              1.696              1.486
 Vibration    10          0.700              1.653              1.357
 Vibration    11          0.706              1.635              1.311
 Vibration    12          0.754              1.501              1.017
 Vibration    13          0.824              1.325              0.748
 Vibration    14          0.859              1.242              0.649
 Vibration    15          0.880              1.194              0.598
 Vibration    16          0.907              1.135              0.540
 Vibration    17          0.946              1.056              0.470

 Optimization completed.
    -- Stationary point found.
 Normal termination of Gaussian 16 at Wed Aug 14 20:33:01 2024.

 ----------------------------------------------------------------------
 # M062X/def2tzvp int=(grid=ultrafine) pop=nbo7 polar prop=efg volume g
 uess=read geom=check
 ----------------------------------------------------------------------

 ---------
 pyrz1.xyz
 ---------
 Structure from the checkpoint file:  "pyrz1_conf-2.chk"
 Charge =  0 Multiplicity = 1

 SCF Done:  E(RM062X) =  -991.104616500     A.U. after   12 cycles

  Exact polarizability:     112.372       6.431     168.937       0.000       0.000      67.244
 Approx polarizability:     153.450      -0.056     185.963       0.000       0.000      92.897

 Summary of Natural Population Analysis:

                                     Natural Population
             Natural    ---------------------------------------------
  Atom No    Charge        Core      Valence    Rydberg      Total
 --------------------------------------------------------------------
   Cl  1    0.01338      9.99998     6.97013    0.01651    16.98662
    C  2    0.17094      1.99999     3.79723    0.03184     5.82906
    C  3    0.16876      1.99999     3.81023    0.02102     5.83124
    C  4   -0.64811      1.99999     4.63750    0.01061     6.64811
    N  5   -0.33423      1.99999     5.30145    0.03278     7.33423
    C  6    0.02697      1.99999     3.95023    0.02280     5.97303
    C  7    0.75519      1.99999     3.20935    0.03547     5.24481
    O  8   -0.50145      2.00000     6.48051    0.02094     8.50145
    C  9   -0.26222      1.99999     4.24713    0.01509     6.26222
    O 10   -0.55272      2.00000     6.52717    0.02555     8.55272
    C 11    0.03117      1.99999     3.94778    0.02105     5.96883
    N 12   -0.38923      1.99999     5.35169    0.03756     7.38923
    H 13    0.23463      0.00000     0.76421    0.00116     0.76537
    H 14    0.24259      0.00000     0.75613    0.00128     0.75741
    H 15    0.23463      0.00000     0.76421    0.00116     0.76537
    H 16    0.19491      0.00000     0.80394    0.00115     0.80509
    H 17    0.19431      0.00000     0.80416    0.00154     0.80569
    H 18    0.19431      0.00000     0.80416    0.00154     0.80569
    H 19    0.22617      0.00000     0.77256    0.00127     0.77383
 ====================================================================
 * Total *  0.00000     31.99990    63.69979    0.30032    96.00000

 Normal termination of Gaussian 16 at Wed Aug 14 20:36:21 2024.
 Gaussian 16:  ES64L-G16RevC.01  3-Jul-2019

 --------------------------------------------------------------------
 # M062X/def2tzvp int=(grid=ultrafine) nmr=giao guess=read geom=check
 --------------------------------------------------------------------

 ---------
 pyrz1.xyz
 ---------
 Structure from the checkpoint file:  "pyrz1_conf-2.chk"
 Charge =  0 Multiplicity = 1

                         Standard orientation:
 ---------------------------------------------------------------------
 Center     Atomic      Atomic             Coordinates (Angstroms)
 Number     Number       Type             X           Y           Z
 ---------------------------------------------------------------------
      1         17           0        0.513858   -3.581717   -0.000000
      2          6           0        0.319788   -1.837492   -0.000000
      3          6           0       -0.983391   -1.284761   -0.000000
      4          6           0       -2.227607   -2.121102    0.000000
      5          7           0       -1.111318    0.040870    0.000000
      6          6           0        0.000000    0.792048    0.000000
      7          6           0       -0.206401    2.278173    0.000000
      8          8           0        0.980093    2.927804    0.000000
      9          6           0        0.884515    4.361852    0.000000
     10          8           0       -1.281285    2.829948    0.000000
     11          6           0        1.269701    0.213403   -0.000000
     12          7           0        1.421473   -1.117629   -0.000000
     13          1           0       -2.262638   -2.772040    0.879374
     14          1           0       -3.096035   -1.462517    0.000000
     15          1           0       -2.262638   -2.772040   -0.879374
     16          1           0        1.911493    4.724410    0.000000
     17          1           0        0.351807    4.708239   -0.888490
     18          1           0        0.351807    4.708239    0.888490
     19          1           0        2.169437    0.817469   -0.000000
 ---------------------------------------------------------------------

 SCF Done:  E(RM062X) =  -991.104616500     A.U. after    1 cycles

      1  Cl   Isotropic =   604.1929   Anisotropy =   507.3950

      2  C    Isotropic =     3.6856   Anisotropy =   119.6375

      3  C    Isotropic =     6.2476   Anisotropy =   195.2300

      4  C    Isotropic =   160.3884   Anisotropy =    36.2671

      5  N    Isotropic =  -188.8181   Anisotropy =   681.0861

      6  C    Isotropic =    21.4587   Anisotropy =   174.7318

      7  C    Isotropic =     4.5874   Anisotropy =    93.1594

      8  O    Isotropic =   137.3178   Anisotropy =   177.5594

      9  C    Isotropic =   130.7139   Anisotropy =    71.4697

     10  O    Isotropic =  -166.9705   Anisotropy =   753.3129

     11  C    Isotropic =    19.0703   Anisotropy =   188.5638

     12  N    Isotropic =  -155.4135   Anisotropy =   624.2298

     13  H    Isotropic =    29.1199   Anisotropy =     5.9833

     14  H    Isotropic =    28.9811   Anisotropy =     8.9065

     15  H    Isotropic =    29.1199   Anisotropy =     5.9833

     16  H    Isotropic =    28.1098   Anisotropy =     7.3489

     17  H    Isotropic =    27.9246   Anisotropy =     7.9142

     18  H    Isotropic =    27.9246   Anisotropy =     7.9142

     19  H    Isotropic =    22.0702   Anisotropy =     9.9686

 The electronic state is 1-A'.
 Alpha  occ. eigenvalues -- -102.66325 -19.68749 -19.62985 -14.79318 -14.78895
 Alpha  occ. eigenvalues --  -10.68902 -10.66279 -10.62208 -10.61419 -10.61098
 Alpha  occ. eigenvalues --  -10.60258 -10.55084  -9.82581  -7.54771  -7.54276
 Alpha  occ. eigenvalues --   -7.54233  -1.24651  -1.15367  -1.12690  -1.04823
 Alpha  occ. eigenvalues --   -0.97655  -0.90662  -0.85112  -0.81870  -0.75962
 Alpha  occ. eigenvalues --   -0.74473  -0.67312  -0.63104  -0.62933  -0.58297
 Alpha  occ. eigenvalues --   -0.58231  -0.56433  -0.54785  -0.52669  -0.50425
 Alpha  occ. eigenvalues --   -0.49269  -0.48444  -0.47998  -0.47013  -0.44940
 Alpha  occ. eigenvalues --   -0.43497  -0.41776  -0.39756  -0.39401  -0.38943
 Alpha  occ. eigenvalues --   -0.37276  -0.34017  -0.32878
 Alpha virt. eigenvalues --   -0.05100  -0.02648   0.06478   0.06709   0.06843
 Alpha virt. eigenvalues --    0.07823   0.10069   0.11594   0.11787   0.13941
 Alpha virt. eigenvalues --    0.13965   0.14793   0.15214   0.16378   0.17911

 Mulliken charges:
               1
     1  Cl  -0.048467
     2  C    0.107573
     3  C    0.140673
     4  C   -0.489521
     5  N   -0.186116
     6  C    0.058800
     7  C    0.335492
     8  O   -0.278645
     9  C   -0.254606
    10  O   -0.302527
    11  C   -0.053105
    12  N   -0.168428
    13  H    0.167366
    14  H    0.169650
    15  H    0.167366
    16  H    0.147745
    17  H    0.157253
    18  H    0.157253
    19  H    0.172244
 Sum of Mulliken charges =  -0.00000

 Dipole moment (field-independent basis, Debye):
    X=              0.9949    Y=              0.7243    Z=             -0.0000  Tot=              1.2306
 Quadrupole moment (field-independent basis, Debye-Ang):
   XX=            -79.2323   YY=            -67.6866   ZZ=            -74.8458
   XY=             14.3738   XZ=              0.0000   YZ=              0.0000

 Normal termination of Gaussian 16 at Wed Aug 14 20:38:00 2024.
