 Gaussian 16, Revision C.01,

 ----------------------------------------------------------------------
 # B3LYP/6-31G(d,p) symmetry=loose empiricaldispersion=GD3BJ int=(grid=
 ultrafine) opt freq=noraman
 ----------------------------------------------------------------------

 ----------
 pyrd10.xyz
 ----------
 Symbolic Z-matrix:
 Charge =  0 Multiplicity = 1

 SCF Done:  E(RB3LYP) =  -2937.38330804     A.U. after   14 cycles
 SCF Done:  E(RB3LYP) =  -2937.38545016     A.U. after   12 cycles
 SCF Done:  E(RB3LYP) =  -2937.38562388     A.U. after   10 cycles
 SCF Done:  E(RB3LYP) =  -2937.38563542     A.U. after   11 cycles
 SCF Done:  E(RB3LYP) =  -2937.38564747     A.U. after    9 cycles
 SCF Done:  E(RB3LYP) =  -2937.38564866     A.U. after    8 cycles
 SCF Done:  E(RB3LYP) =  -2937.38565203     A.U. after   10 cycles
 SCF Done:  E(RB3LYP) =  -2937.38565533     A.U. after   10 cycles
 SCF Done:  E(RB3LYP) =  -2937.38566064     A.U. after   10 cycles
 SCF Done:  E(RB3LYP) =  -2937.38568260     A.U. after   12 cycles
 SCF Done:  E(RB3LYP) =  -2937.38816645     A.U. after   11 cycles
 SCF Done:  E(RB3LYP) =  -2937.38820333     A.U. after   11 cycles
 SCF Done:  E(RB3LYP) =  -2937.38821477     A.U. after   10 cycles
 SCF Done:  E(RB3LYP) =  -2937.38822462     A.U. after   10 cycles
 SCF Done:  E(RB3LYP) =  -2937.38823343     A.U. after   10 cycles
 SCF Done:  E(RB3LYP) =  -2937.38823704     A.U. after    9 cycles
 SCF Done:  E(RB3LYP) =  -2937.38823719     A.U. after    7 cycles
 Optimization completed.
    -- Stationary point found.
 Normal termination of Gaussian 16 at Wed Aug 14 18:55:40 2024.

 ----------------------------------------------------------------------
 #N Geom=AllCheck Guess=TCheck SCRF=Check GenChk RB3LYP/6-31G(d,p) Freq
 ----------------------------------------------------------------------

 Structure from the checkpoint file:  "pyrd10_conf-9.chk"
 ----------
 pyrd10.xyz
 ----------
 Charge =  0 Multiplicity = 1

 SCF Done:  E(RB3LYP) =  -2937.38823719     A.U. after    1 cycles

                      1                      2                      3
                      A                      A                      A
 Frequencies --     29.8529                34.1686                97.1495
 Red. masses --      4.6042                 4.8086                 3.5902
 Frc consts  --      0.0024                 0.0033                 0.0200
 IR Inten    --      3.1609                 1.9667                 0.1828

                      4                      5                      6
                      A                      A                      A
 Frequencies --    111.4540               228.4306               275.3860
 Red. masses --      5.9251                 2.0705                 3.2803
 Frc consts  --      0.0434                 0.0637                 0.1466
 IR Inten    --      0.4287                 0.5390                 0.6543

                      7                      8                      9
                      A                      A                      A
 Frequencies --    338.8042               377.1640               413.7992
 Red. masses --      2.3819                 3.6786                 3.2528
 Frc consts  --      0.1611                 0.3083                 0.3282
 IR Inten    --      0.2910                 2.7365                 2.7019

                     10                     11                     12
                      A                      A                      A
 Frequencies --    507.6400               562.0563               615.3958
 Red. masses --      4.0110                 3.6964                 5.3343
 Frc consts  --      0.6090                 0.6880                 1.1902
 IR Inten    --      0.8886                16.3288                 2.5335

                     13                     14                     15
                      A                      A                      A
 Frequencies --    652.4477               733.8817               769.8878
 Red. masses --      5.8385                 2.0434                 1.3685
 Frc consts  --      1.4644                 0.6484                 0.4779
 IR Inten    --      2.2828                19.7286                 6.8346

                     16                     17                     18
                      A                      A                      A
 Frequencies --    809.1288               836.3320               867.0286
 Red. masses --      1.8386                 1.7133                 2.7018
 Frc consts  --      0.7092                 0.7061                 1.1967
 IR Inten    --     13.0884                 2.2183                 3.1301

                     19                     20                     21
                      A                      A                      A
 Frequencies --    946.2719               963.0065               986.2472
 Red. masses --      1.3551                 1.4941                 1.8444
 Frc consts  --      0.7149                 0.8164                 1.0570
 IR Inten    --      0.6760                 2.5911                 9.6975

                     22                     23                     24
                      A                      A                      A
 Frequencies --    997.9786              1018.2169              1045.3779
 Red. masses --      1.3643                 1.6846                 3.9225
 Frc consts  --      0.8006                 1.0290                 2.5255
 IR Inten    --      0.1299                 1.2289                10.2617

                     25                     26                     27
                      A                      A                      A
 Frequencies --   1070.3018              1075.1431              1131.8030
 Red. masses --      2.4806                 2.4874                 1.3417
 Frc consts  --      1.6742                 1.6940                 1.0126
 IR Inten    --      1.9622                 0.3126                 2.2087

                     28                     29                     30
                      A                      A                      A
 Frequencies --   1157.6654              1205.3114              1229.2354
 Red. masses --      1.2553                 1.3511                 1.6443
 Frc consts  --      0.9912                 1.1565                 1.4638
 IR Inten    --      2.7654                 9.4353                 3.3194

                     31                     32                     33
                      A                      A                      A
 Frequencies --   1253.3639              1276.2021              1311.3775
 Red. masses --      1.7137                 1.3549                 2.4083
 Frc consts  --      1.5861                 1.3002                 2.4402
 IR Inten    --      2.3575                41.5614                12.2028

                     34                     35                     36
                      A                      A                      A
 Frequencies --   1323.4949              1339.7419              1378.4995
 Red. masses --      1.8011                 1.2334                 1.2072
 Frc consts  --      1.8588                 1.3043                 1.3516
 IR Inten    --      3.3726                10.3495                 1.7964

                     37                     38                     39
                      A                      A                      A
 Frequencies --   1401.8717              1470.3857              1484.5371
 Red. masses --      1.5241                 2.3127                 1.0839
 Frc consts  --      1.7647                 2.9460                 1.4074
 IR Inten    --      2.3850                20.7147                 4.7709

                     40                     41                     42
                      A                      A                      A
 Frequencies --   1493.0044              1511.8593              1523.4881
 Red. masses --      1.1112                 1.1041                 2.2757
 Frc consts  --      1.4594                 1.4869                 3.1120
 IR Inten    --      0.1924                 3.5472                15.0371

                     43                     44                     45
                      A                      A                      A
 Frequencies --   1629.6600              1651.5465              3032.2706
 Red. masses --      5.2728                 5.8218                 1.0647
 Frc consts  --      8.2507                 9.3559                 5.7678
 IR Inten    --     12.0165                 1.4770                11.2105

                     46                     47                     48
                      A                      A                      A
 Frequencies --   3047.0679              3085.2185              3102.6192
 Red. masses --      1.0637                 1.0935                 1.0970
 Frc consts  --      5.8189                 6.1323                 6.2219
 IR Inten    --     21.5586                 3.7424                 6.4292

                     49                     50                     51
                      A                      A                      A
 Frequencies --   3111.7419              3145.0389              3166.9450
 Red. masses --      1.0646                 1.0897                 1.0892
 Frc consts  --      6.0737                 6.3505                 6.4361
 IR Inten    --     24.4076                32.0819                15.7033

                     52                     53                     54
                      A                      A                      A
 Frequencies --   3178.2502              3178.6313              3207.1635
 Red. masses --      1.0920                 1.1094                 1.0964
 Frc consts  --      6.4993                 6.6042                 6.6444
 IR Inten    --     12.4792                 8.0101                17.6607

 - Thermochemistry -
 -------------------
 Temperature   298.150 Kelvin.  Pressure   1.00000 Atm.
 Atom     1 has atomic number 35 and mass  78.91834

 Molecular mass:   198.99966 amu.
 Principal axes and moments of inertia in atomic units:
                                 1                 2                 3
     Eigenvalues --          577.035280       5726.423249       6083.016116
           X                   0.999831         -0.018150          0.002809
           Y                   0.018120          0.999782          0.010376
           Z                  -0.002997         -0.010323          0.999942
 This molecule is an asymmetric top.
 Rotational symmetry number  1.
 Warning -- assumption of classical behavior for rotation
           may cause significant error
 Rotational temperatures (Kelvin)      0.15010     0.01513     0.01424
 Rotational constants (GHZ):           3.12761     0.31516     0.29669
 Zero-point vibrational energy     432991.6 (Joules/Mol)
                                  103.48748 (Kcal/Mol)
 Warning -- explicit consideration of  12 degrees of freedom as
           vibrations may cause significant error
 Vibrational temperatures:     42.95    49.16   139.78   160.36   328.66
          (Kelvin)            396.22   487.46   542.65   595.36   730.38
                              808.67   885.42   938.73  1055.89  1107.70
                             1164.16  1203.30  1247.46  1361.47  1385.55
                             1418.99  1435.87  1464.99  1504.07  1539.93
                             1546.89  1628.41  1665.62  1734.17  1768.60
                             1803.31  1836.17  1886.78  1904.21  1927.59
                             1983.35  2016.98  2115.56  2135.92  2148.10
                             2175.23  2191.96  2344.72  2376.21  4362.76
                             4384.05  4438.94  4463.98  4477.10  4525.01
                             4556.53  4572.79  4573.34  4614.39

 Zero-point correction=                           0.164918 (Hartree/Particle)
 Thermal correction to Energy=                    0.174459
 Thermal correction to Enthalpy=                  0.175404
 Thermal correction to Gibbs Free Energy=         0.126899
 Sum of electronic and zero-point Energies=          -2937.223319
 Sum of electronic and thermal Energies=             -2937.213778
 Sum of electronic and thermal Enthalpies=           -2937.212834
 Sum of electronic and thermal Free Energies=        -2937.261338

                     E (Thermal)             CV                S
                      KCal/Mol        Cal/Mol-Kelvin    Cal/Mol-Kelvin
 Total                  109.475             34.640            102.086
 Electronic               0.000              0.000              0.000
 Translational            0.889              2.981             41.769
 Rotational               0.889              2.981             31.375
 Vibrational            107.698             28.679             28.942
 Vibration     1          0.594              1.984              5.839
 Vibration     2          0.594              1.983              5.571
 Vibration     3          0.603              1.951              3.511
 Vibration     4          0.607              1.940              3.243
 Vibration     5          0.651              1.798              1.891
 Vibration     6          0.677              1.719              1.562
 Vibration     7          0.719              1.598              1.218
 Vibration     8          0.748              1.519              1.051
 Vibration     9          0.777              1.440              0.913
 Vibration    10          0.863              1.233              0.639
 Vibration    11          0.918              1.113              0.520
 Vibration    12          0.975              0.999              0.424

 Optimization completed.
    -- Stationary point found.
 Normal termination of Gaussian 16 at Wed Aug 14 18:56:49 2024.

 ----------------------------------------------------------------------
 # M062X/def2tzvp int=(grid=ultrafine) pop=nbo7 polar prop=efg volume g
 uess=read geom=check
 ----------------------------------------------------------------------

 ----------
 pyrd10.xyz
 ----------
 Structure from the checkpoint file:  "pyrd10_conf-9.chk"
 Charge =  0 Multiplicity = 1

 SCF Done:  E(RM062X) =  -2939.78921584     A.U. after   11 cycles

  Exact polarizability:     152.955       0.311     115.235      -6.294       3.010      81.649
 Approx polarizability:     167.712       6.001     162.514     -10.051       5.255     112.527

 Summary of Natural Population Analysis:

                                     Natural Population
             Natural    ---------------------------------------------
  Atom No    Charge        Core      Valence    Rydberg      Total
 --------------------------------------------------------------------
   Br  1   -0.05809     27.99997     7.04785    0.01028    35.05809
    C  2   -0.38925      1.99999     4.37078    0.01848     6.38925
    C  3   -0.41673      1.99999     4.40294    0.01380     6.41673
    C  4   -0.42660      1.99999     4.41249    0.01411     6.42660
    C  5   -0.05855      1.99999     4.04141    0.01715     6.05855
    C  6    0.03011      1.99999     3.94774    0.02215     5.96989
    N  7   -0.41000      1.99999     5.37813    0.03188     7.41000
    C  8    0.02277      1.99999     3.95487    0.02236     5.97723
    C  9   -0.25013      1.99999     4.23397    0.01617     6.25013
    C 10   -0.17611      1.99999     4.15946    0.01666     6.17611
    H 11    0.22406      0.00000     0.77437    0.00157     0.77594
    H 12    0.21482      0.00000     0.78320    0.00198     0.78518
    H 13    0.21441      0.00000     0.78351    0.00208     0.78559
    H 14    0.21861      0.00000     0.77981    0.00157     0.78139
    H 15    0.22819      0.00000     0.76955    0.00226     0.77181
    H 16    0.21146      0.00000     0.78666    0.00188     0.78854
    H 17    0.18834      0.00000     0.81004    0.00162     0.81166
    H 18    0.19473      0.00000     0.80386    0.00141     0.80527
    H 19    0.22117      0.00000     0.77770    0.00113     0.77883
    H 20    0.21679      0.00000     0.78169    0.00152     0.78321
 ====================================================================
 * Total *  0.00000     45.99990    53.80004    0.20006   100.00000

 Normal termination of Gaussian 16 at Wed Aug 14 19:00:31 2024.
 Gaussian 16:  ES64L-G16RevC.01  3-Jul-2019

 --------------------------------------------------------------------
 # M062X/def2tzvp int=(grid=ultrafine) nmr=giao guess=read geom=check
 --------------------------------------------------------------------

 ----------
 pyrd10.xyz
 ----------
 Structure from the checkpoint file:  "pyrd10_conf-9.chk"
 Charge =  0 Multiplicity = 1

                         Standard orientation:
 ---------------------------------------------------------------------
 Center     Atomic      Atomic             Coordinates (Angstroms)
 Number     Number       Type             X           Y           Z
 ---------------------------------------------------------------------
      1         35           0       -3.015516   -0.396723    0.138605
      2          6           0       -1.998084    1.145378   -0.586427
      3          6           0       -0.529936    0.806388   -0.772082
      4          6           0        0.209631    0.508719    0.542461
      5          6           0        1.653523    0.147223    0.308809
      6          6           0        2.669117    1.105931    0.402696
      7          7           0        3.963949    0.865917    0.169885
      8          6           0        4.301870   -0.381824   -0.176439
      9          6           0        3.378383   -1.420632   -0.298713
     10          6           0        2.035663   -1.148338   -0.052468
     11          1           0       -2.490294    1.388922   -1.526722
     12          1           0       -2.155837    1.949358    0.132884
     13          1           0       -0.435414   -0.047251   -1.451625
     14          1           0       -0.053409    1.661248   -1.271422
     15          1           0       -0.306107   -0.309525    1.055155
     16          1           0        0.146045    1.385659    1.197766
     17          1           0        2.416607    2.126860    0.688867
     18          1           0        5.359203   -0.559650   -0.361707
     19          1           0        3.707055   -2.416893   -0.576334
     20          1           0        1.286573   -1.931924   -0.134258
 ---------------------------------------------------------------------

 SCF Done:  E(RM062X) =  -2939.78921584     A.U. after    1 cycles

      1  Br   Isotropic =  2375.4437   Anisotropy =   918.9733

      2  C    Isotropic =   136.3267   Anisotropy =    44.9165

      3  C    Isotropic =   143.4940   Anisotropy =    32.7674

      4  C    Isotropic =   150.1895   Anisotropy =    32.6974

      5  C    Isotropic =    25.0190   Anisotropy =   227.0887

      6  C    Isotropic =    10.2683   Anisotropy =   184.5406

      7  N    Isotropic =  -155.3219   Anisotropy =   678.1642

      8  C    Isotropic =    12.7885   Anisotropy =   205.8472

      9  C    Isotropic =    41.8090   Anisotropy =   203.8984

     10  C    Isotropic =    26.4212   Anisotropy =   220.7229

     11  H    Isotropic =    28.1814   Anisotropy =    11.1462

     12  H    Isotropic =    28.4645   Anisotropy =    11.0490

     13  H    Isotropic =    30.1925   Anisotropy =     5.0527

     14  H    Isotropic =    29.9597   Anisotropy =     7.7092

     15  H    Isotropic =    28.4933   Anisotropy =     6.5084

     16  H    Isotropic =    29.4784   Anisotropy =     7.5879

     17  H    Isotropic =    22.3976   Anisotropy =    10.7208

     18  H    Isotropic =    22.4517   Anisotropy =     7.0559

     19  H    Isotropic =    23.9525   Anisotropy =     7.1188

     20  H    Isotropic =    23.5586   Anisotropy =    10.6718

 The electronic state is 1-A.
 Alpha  occ. eigenvalues -- -485.36482 -63.34984 -57.16924 -57.16691 -57.16687
 Alpha  occ. eigenvalues --  -14.75118 -10.60483 -10.57747 -10.57715 -10.56306
 Alpha  occ. eigenvalues --  -10.56192 -10.56077 -10.55443 -10.55369  -9.01619
 Alpha  occ. eigenvalues --   -6.84008  -6.83157  -6.83142  -2.87374  -2.87072
 Alpha  occ. eigenvalues --   -2.87060  -2.86265  -2.86264  -1.05354  -0.94308
 Alpha  occ. eigenvalues --   -0.91077  -0.87805  -0.83768  -0.77715  -0.71979
 Alpha  occ. eigenvalues --   -0.70530  -0.67670  -0.60195  -0.57261  -0.55080
 Alpha  occ. eigenvalues --   -0.53912  -0.52098  -0.50247  -0.47760  -0.47348
 Alpha  occ. eigenvalues --   -0.46022  -0.45368  -0.43124  -0.41611  -0.40487
 Alpha  occ. eigenvalues --   -0.34799  -0.34170  -0.33982  -0.32629  -0.31210
 Alpha virt. eigenvalues --   -0.00210   0.01191   0.02591   0.06360   0.07963
 Alpha virt. eigenvalues --    0.08848   0.10235   0.10386   0.12102   0.13053
 Alpha virt. eigenvalues --    0.13383   0.14103   0.14764   0.15755   0.16532

 Mulliken charges:
               1
     1  Br  -0.162386
     2  C   -0.209990
     3  C   -0.275584
     4  C   -0.438575
     5  C    0.125302
     6  C   -0.085939
     7  N   -0.220808
     8  C   -0.055737
     9  C   -0.150971
    10  C   -0.149142
    11  H    0.175589
    12  H    0.169309
    13  H    0.172558
    14  H    0.157885
    15  H    0.190810
    16  H    0.163106
    17  H    0.142957
    18  H    0.144216
    19  H    0.142826
    20  H    0.164574
 Sum of Mulliken charges =   0.00000

 Dipole moment (field-independent basis, Debye):
    X=             -0.5906    Y=             -0.0172    Z=             -0.9741  Tot=              1.1393
 Quadrupole moment (field-independent basis, Debye-Ang):
   XX=            -85.8596   YY=            -68.0635   ZZ=            -73.9659
   XY=            -10.9145   XZ=             -0.6210   YZ=              0.2022

 Normal termination of Gaussian 16 at Wed Aug 14 19:01:59 2024.
