 Gaussian 16, Revision C.01,

 ----------------------------------------------------------------------
 # B3LYP/6-31G(d,p) symmetry=loose empiricaldispersion=GD3BJ int=(grid=
 ultrafine) opt freq=noraman
 ----------------------------------------------------------------------

 ----------
 pyrd10.xyz
 ----------
 Symbolic Z-matrix:
 Charge =  0 Multiplicity = 1

 SCF Done:  E(RB3LYP) =  -2937.38456568     A.U. after   14 cycles
 SCF Done:  E(RB3LYP) =  -2937.38667099     A.U. after   12 cycles
 SCF Done:  E(RB3LYP) =  -2937.38683901     A.U. after   11 cycles
 SCF Done:  E(RB3LYP) =  -2937.38684860     A.U. after    8 cycles
 SCF Done:  E(RB3LYP) =  -2937.38684962     A.U. after    8 cycles
 SCF Done:  E(RB3LYP) =  -2937.38684976     A.U. after    7 cycles
 Optimization completed.
    -- Stationary point found.
 Normal termination of Gaussian 16 at Wed Aug 14 18:47:21 2024.

 ----------------------------------------------------------------------
 #N Geom=AllCheck Guess=TCheck SCRF=Check GenChk RB3LYP/6-31G(d,p) Freq
 ----------------------------------------------------------------------

 Structure from the checkpoint file:  "pyrd10_conf-3.chk"
 ----------
 pyrd10.xyz
 ----------
 Charge =  0 Multiplicity = 1

 SCF Done:  E(RB3LYP) =  -2937.38684976     A.U. after    1 cycles

                      1                      2                      3
                      A                      A                      A
 Frequencies --     29.1813                43.8843                81.5882
 Red. masses --      4.4421                 7.6324                 2.3958
 Frc consts  --      0.0022                 0.0087                 0.0094
 IR Inten    --      1.6469                 0.4747                 1.5442

                      4                      5                      6
                      A                      A                      A
 Frequencies --    168.6450               196.1899               212.9535
 Red. masses --      2.9112                 3.7853                 4.5357
 Frc consts  --      0.0488                 0.0858                 0.1212
 IR Inten    --      0.2508                 1.4860                 1.0392

                      7                      8                      9
                      A                      A                      A
 Frequencies --    347.1903               371.5002               413.8805
 Red. masses --      2.0739                 3.6964                 3.3774
 Frc consts  --      0.1473                 0.3006                 0.3409
 IR Inten    --      0.4602                 2.0989                 3.7040

                     10                     11                     12
                      A                      A                      A
 Frequencies --    507.7529               585.2810               642.7255
 Red. masses --      4.1660                 3.9066                 7.0993
 Frc consts  --      0.6328                 0.7884                 1.7279
 IR Inten    --      2.0950                 4.9838                 4.0057

                     13                     14                     15
                      A                      A                      A
 Frequencies --    660.6282               732.0663               759.3277
 Red. masses --      3.2143                 2.0821                 1.3135
 Frc consts  --      0.8265                 0.6574                 0.4462
 IR Inten    --     19.9362                21.9215                 4.1171

                     16                     17                     18
                      A                      A                      A
 Frequencies --    803.0348               827.5436               876.7977
 Red. masses --      2.7779                 1.7534                 1.8708
 Frc consts  --      1.0555                 0.7075                 0.8474
 IR Inten    --      4.7282                 5.1287                11.4774

                     19                     20                     21
                      A                      A                      A
 Frequencies --    947.2663               964.1185               973.8197
 Red. masses --      1.3422                 1.6092                 1.8338
 Frc consts  --      0.7096                 0.8813                 1.0246
 IR Inten    --      0.4875                 0.6070                 3.6115

                     22                     23                     24
                      A                      A                      A
 Frequencies --    998.0713              1024.1672              1046.1452
 Red. masses --      1.3675                 1.7350                 3.8283
 Frc consts  --      0.8026                 1.0723                 2.4686
 IR Inten    --      0.0635                 0.2876                11.5101

                     25                     26                     27
                      A                      A                      A
 Frequencies --   1068.2134              1074.9587              1133.1651
 Red. masses --      2.5244                 2.5543                 1.3297
 Frc consts  --      1.6971                 1.7390                 1.0060
 IR Inten    --      0.3945                 0.4712                 2.5963

                     28                     29                     30
                      A                      A                      A
 Frequencies --   1155.9500              1208.0151              1229.9227
 Red. masses --      1.3030                 1.3796                 1.5332
 Frc consts  --      1.0258                 1.1861                 1.3665
 IR Inten    --      5.1631                10.4279                 1.5646

                     31                     32                     33
                      A                      A                      A
 Frequencies --   1251.5833              1268.5192              1309.7593
 Red. masses --      1.7231                 1.2979                 1.4651
 Frc consts  --      1.5903                 1.2305                 1.4808
 IR Inten    --      2.7921                31.3659                 1.9054

                     34                     35                     36
                      A                      A                      A
 Frequencies --   1317.1233              1360.4562              1382.6960
 Red. masses --      2.8022                 1.3738                 1.4334
 Frc consts  --      2.8642                 1.4981                 1.6146
 IR Inten    --      0.8299                 4.7204                 3.3588

                     37                     38                     39
                      A                      A                      A
 Frequencies --   1383.8325              1469.7441              1496.8862
 Red. masses --      1.2240                 2.3045                 1.1070
 Frc consts  --      1.3810                 2.9330                 1.4614
 IR Inten    --      1.4569                22.3224                 5.9871

                     40                     41                     42
                      A                      A                      A
 Frequencies --   1502.2859              1508.5282              1523.9566
 Red. masses --      1.1075                 1.1015                 2.2177
 Frc consts  --      1.4727                 1.4769                 3.0346
 IR Inten    --      2.6301                 2.8428                12.2675

                     43                     44                     45
                      A                      A                      A
 Frequencies --   1628.6938              1650.8060              3044.1746
 Red. masses --      5.2393                 5.8197                 1.0602
 Frc consts  --      8.1885                 9.3443                 5.7888
 IR Inten    --     10.9587                 2.8538                24.3734

                     46                     47                     48
                      A                      A                      A
 Frequencies --   3061.0110              3086.5199              3106.6772
 Red. masses --      1.0626                 1.1013                 1.0939
 Frc consts  --      5.8661                 6.1816                 6.2207
 IR Inten    --      7.7962                16.9672                18.4527

                     49                     50                     51
                      A                      A                      A
 Frequencies --   3111.8133              3147.4330              3169.0298
 Red. masses --      1.0680                 1.0897                 1.0891
 Frc consts  --      6.0932                 6.3602                 6.4445
 IR Inten    --     13.2051                30.1763                13.3616

                     52                     53                     54
                      A                      A                      A
 Frequencies --   3178.0215              3181.6629              3208.5141
 Red. masses --      1.0902                 1.1103                 1.0963
 Frc consts  --      6.4873                 6.6220                 6.6497
 IR Inten    --     16.0224                 7.3543                16.5235

 - Thermochemistry -
 -------------------
 Temperature   298.150 Kelvin.  Pressure   1.00000 Atm.
 Atom     1 has atomic number 35 and mass  78.91834

 Molecular mass:   198.99966 amu.
 Principal axes and moments of inertia in atomic units:
                                 1                 2                 3
     Eigenvalues --          852.356586       5190.824874       5351.790846
           X                   0.999818          0.016527         -0.009510
           Y                  -0.016753          0.999567         -0.024207
           Z                   0.009106          0.024362          0.999662
 This molecule is an asymmetric top.
 Rotational symmetry number  1.
 Warning -- assumption of classical behavior for rotation
           may cause significant error
 Rotational temperatures (Kelvin)      0.10162     0.01669     0.01618
 Rotational constants (GHZ):           2.11735     0.34768     0.33722
 Zero-point vibrational energy     433249.8 (Joules/Mol)
                                  103.54919 (Kcal/Mol)
 Warning -- explicit consideration of  11 degrees of freedom as
           vibrations may cause significant error
 Vibrational temperatures:     41.99    63.14   117.39   242.64   282.27
          (Kelvin)            306.39   499.53   534.51   595.48   730.54
                              842.09   924.74   950.50  1053.28  1092.50
                             1155.39  1190.65  1261.52  1362.90  1387.15
                             1401.11  1436.00  1473.55  1505.17  1536.92
                             1546.63  1630.37  1663.15  1738.06  1769.58
                             1800.75  1825.12  1884.45  1895.05  1957.39
                             1989.39  1991.03  2114.63  2153.69  2161.45
                             2170.44  2192.63  2343.33  2375.14  4379.89
                             4404.11  4440.81  4469.82  4477.21  4528.45
                             4559.53  4572.46  4577.70  4616.34

 Zero-point correction=                           0.165016 (Hartree/Particle)
 Thermal correction to Energy=                    0.174577
 Thermal correction to Enthalpy=                  0.175521
 Thermal correction to Gibbs Free Energy=         0.127065
 Sum of electronic and zero-point Energies=          -2937.221834
 Sum of electronic and thermal Energies=             -2937.212273
 Sum of electronic and thermal Enthalpies=           -2937.211328
 Sum of electronic and thermal Free Energies=        -2937.259785

                     E (Thermal)             CV                S
                      KCal/Mol        Cal/Mol-Kelvin    Cal/Mol-Kelvin
 Total                  109.549             34.647            101.985
 Electronic               0.000              0.000              0.000
 Translational            0.889              2.981             41.769
 Rotational               0.889              2.981             31.538
 Vibrational            107.771             28.685             28.678
 Vibration     1          0.593              1.984              5.884
 Vibration     2          0.595              1.980              5.076
 Vibration     3          0.600              1.962              3.852
 Vibration     4          0.625              1.881              2.451
 Vibration     5          0.636              1.845              2.169
 Vibration     6          0.644              1.821              2.018
 Vibration     7          0.725              1.581              1.179
 Vibration     8          0.743              1.531              1.074
 Vibration     9          0.777              1.440              0.913
 Vibration    10          0.863              1.233              0.639
 Vibration    11          0.942              1.063              0.476

                           ! Non-Optimized Parameters !
 Normal termination of Gaussian 16 at Wed Aug 14 18:49:10 2024.

 ----------------------------------------------------------------------
 # M062X/def2tzvp int=(grid=ultrafine) pop=nbo7 polar prop=efg volume g
 uess=read geom=check
 ----------------------------------------------------------------------

 ----------
 pyrd10.xyz
 ----------
 Structure from the checkpoint file:  "pyrd10_conf-3.chk"
 Charge =  0 Multiplicity = 1

 SCF Done:  E(RM062X) =  -2939.78870744     A.U. after   12 cycles

  Exact polarizability:     137.786      14.204     102.784      -1.199      -0.597     107.989
 Approx polarizability:     152.009      19.181     136.021       0.700      -0.205     154.469

 Summary of Natural Population Analysis:

                                     Natural Population
             Natural    ---------------------------------------------
  Atom No    Charge        Core      Valence    Rydberg      Total
 --------------------------------------------------------------------
   Br  1   -0.04170     27.99997     7.03161    0.01012    35.04170
    C  2   -0.40223      1.99999     4.38323    0.01900     6.40223
    C  3   -0.41580      1.99999     4.40125    0.01456     6.41580
    C  4   -0.41920      1.99999     4.40658    0.01263     6.41920
    C  5   -0.06652      1.99999     4.04857    0.01796     6.06652
    C  6    0.02655      1.99999     3.95113    0.02232     5.97345
    N  7   -0.40826      1.99999     5.37638    0.03189     7.40826
    C  8    0.02462      1.99999     3.95311    0.02227     5.97538
    C  9   -0.24790      1.99999     4.23180    0.01611     6.24790
    C 10   -0.17835      1.99999     4.16153    0.01682     6.17835
    H 11    0.21472      0.00000     0.78326    0.00202     0.78528
    H 12    0.22400      0.00000     0.77409    0.00191     0.77600
    H 13    0.21096      0.00000     0.78701    0.00203     0.78904
    H 14    0.21837      0.00000     0.77983    0.00180     0.78163
    H 15    0.21230      0.00000     0.78585    0.00185     0.78770
    H 16    0.22493      0.00000     0.77345    0.00162     0.77507
    H 17    0.18994      0.00000     0.80839    0.00167     0.81006
    H 18    0.19603      0.00000     0.80256    0.00141     0.80397
    H 19    0.22226      0.00000     0.77662    0.00113     0.77774
    H 20    0.21529      0.00000     0.78321    0.00149     0.78471
 ====================================================================
 * Total *  0.00000     45.99990    53.79948    0.20062   100.00000

 Normal termination of Gaussian 16 at Wed Aug 14 18:54:40 2024.
 Gaussian 16:  ES64L-G16RevC.01  3-Jul-2019

 --------------------------------------------------------------------
 # M062X/def2tzvp int=(grid=ultrafine) nmr=giao guess=read geom=check
 --------------------------------------------------------------------

 ----------
 pyrd10.xyz
 ----------
 Structure from the checkpoint file:  "pyrd10_conf-3.chk"
 Charge =  0 Multiplicity = 1

                         Standard orientation:
 ---------------------------------------------------------------------
 Center     Atomic      Atomic             Coordinates (Angstroms)
 Number     Number       Type             X           Y           Z
 ---------------------------------------------------------------------
      1         35           0        2.965127   -0.482389    0.094235
      2          6           0        1.203894    0.135205   -0.557028
      3          6           0        0.708322    1.315925    0.259807
      4          6           0       -0.669500    1.811606   -0.228423
      5          6           0       -1.756042    0.773716   -0.085303
      6          6           0       -2.274307    0.101574   -1.198237
      7          7           0       -3.210874   -0.851922   -1.142054
      8          6           0       -3.679685   -1.178475    0.067249
      9          6           0       -3.241280   -0.575955    1.247740
     10          6           0       -2.265384    0.412354    1.166568
     11          1           0        1.354160    0.389500   -1.606549
     12          1           0        0.546281   -0.729284   -0.481527
     13          1           0        0.644909    1.022821    1.313059
     14          1           0        1.434992    2.132050    0.198753
     15          1           0       -0.595695    2.122309   -1.277106
     16          1           0       -0.934681    2.707332    0.344904
     17          1           0       -1.909301    0.353839   -2.193549
     18          1           0       -4.440660   -1.955506    0.094823
     19          1           0       -3.658111   -0.875425    2.203773
     20          1           0       -1.901354    0.903745    2.065335
 ---------------------------------------------------------------------

 SCF Done:  E(RM062X) =  -2939.78870744     A.U. after    1 cycles

      1  Br   Isotropic =  2345.3190   Anisotropy =  1015.1108

      2  C    Isotropic =   140.7000   Anisotropy =    55.6327

      3  C    Isotropic =   145.1261   Anisotropy =    38.3758

      4  C    Isotropic =   149.7514   Anisotropy =    20.7410

      5  C    Isotropic =    26.9238   Anisotropy =   226.4664

      6  C    Isotropic =    10.0046   Anisotropy =   183.2258

      7  N    Isotropic =  -155.2305   Anisotropy =   678.2181

      8  C    Isotropic =    11.6080   Anisotropy =   205.7790

      9  C    Isotropic =    41.3863   Anisotropy =   205.7605

     10  C    Isotropic =    27.1871   Anisotropy =   224.7617

     11  H    Isotropic =    28.8036   Anisotropy =     9.4301

     12  H    Isotropic =    29.0870   Anisotropy =    13.5150

     13  H    Isotropic =    29.9526   Anisotropy =     5.5389

     14  H    Isotropic =    29.6890   Anisotropy =     5.9997

     15  H    Isotropic =    29.4007   Anisotropy =     7.0094

     16  H    Isotropic =    28.9186   Anisotropy =     8.0663

     17  H    Isotropic =    22.5410   Anisotropy =    10.0273

     18  H    Isotropic =    22.3668   Anisotropy =     7.0128

     19  H    Isotropic =    23.9207   Anisotropy =     6.7806

     20  H    Isotropic =    23.5960   Anisotropy =     9.7573

 The electronic state is 1-A.
 Alpha  occ. eigenvalues -- -485.36057 -63.34561 -57.16503 -57.16266 -57.16263
 Alpha  occ. eigenvalues --  -14.75546 -10.59869 -10.58186 -10.58152 -10.56811
 Alpha  occ. eigenvalues --  -10.56667 -10.56134 -10.55905 -10.55902  -9.01201
 Alpha  occ. eigenvalues --   -6.83599  -6.82731  -6.82722  -2.86965  -2.86655
 Alpha  occ. eigenvalues --   -2.86648  -2.85838  -2.85837  -1.05808  -0.94510
 Alpha  occ. eigenvalues --   -0.91047  -0.88119  -0.84031  -0.77071  -0.72592
 Alpha  occ. eigenvalues --   -0.71266  -0.67559  -0.60610  -0.57576  -0.55904
 Alpha  occ. eigenvalues --   -0.53109  -0.51992  -0.49830  -0.48904  -0.47826
 Alpha  occ. eigenvalues --   -0.47066  -0.44557  -0.43250  -0.41450  -0.40959
 Alpha  occ. eigenvalues --   -0.35120  -0.33846  -0.33622  -0.33042  -0.31572
 Alpha virt. eigenvalues --   -0.00873   0.00726   0.02811   0.06805   0.07632
 Alpha virt. eigenvalues --    0.08863   0.09128   0.10953   0.11408   0.12688
 Alpha virt. eigenvalues --    0.13954   0.14282   0.15738   0.16717   0.17244

 Mulliken charges:
               1
     1  Br  -0.156419
     2  C   -0.215454
     3  C   -0.271288
     4  C   -0.410829
     5  C    0.071476
     6  C   -0.090191
     7  N   -0.217474
     8  C   -0.052688
     9  C   -0.154057
    10  C   -0.133240
    11  H    0.168173
    12  H    0.184498
    13  H    0.165653
    14  H    0.160069
    15  H    0.176163
    16  H    0.175229
    17  H    0.148485
    18  H    0.146435
    19  H    0.144312
    20  H    0.161147
 Sum of Mulliken charges =  -0.00000

 Dipole moment (field-independent basis, Debye):
    X=             -1.1090    Y=              1.9745    Z=              1.3492  Tot=              2.6361
 Quadrupole moment (field-independent basis, Debye-Ang):
   XX=            -82.7831   YY=            -71.8302   ZZ=            -70.9869
   XY=              1.5540   XZ=             -8.3014   YZ=             -2.6380

 Normal termination of Gaussian 16 at Wed Aug 14 18:56:31 2024.
