 Gaussian 16, Revision C.01,

 ----------------------------------------------------------------------
 # B3LYP/6-31G(d,p) symmetry=loose empiricaldispersion=GD3BJ int=(grid=
 ultrafine) opt freq=noraman
 ----------------------------------------------------------------------

 ----------
 pyrd11.xyz
 ----------
 Symbolic Z-matrix:
 Charge =  0 Multiplicity = 1

 SCF Done:  E(RB3LYP) =  -975.111394202     A.U. after   15 cycles
 SCF Done:  E(RB3LYP) =  -975.117928923     A.U. after   14 cycles
 SCF Done:  E(RB3LYP) =  -975.116981045     A.U. after   13 cycles
 SCF Done:  E(RB3LYP) =  -975.119015193     A.U. after   11 cycles
 SCF Done:  E(RB3LYP) =  -975.119277933     A.U. after   12 cycles
 SCF Done:  E(RB3LYP) =  -975.119310247     A.U. after   10 cycles
 SCF Done:  E(RB3LYP) =  -975.119318671     A.U. after   10 cycles
 SCF Done:  E(RB3LYP) =  -975.119324277     A.U. after   10 cycles
 SCF Done:  E(RB3LYP) =  -975.119326767     A.U. after    9 cycles
 SCF Done:  E(RB3LYP) =  -975.119332773     A.U. after   10 cycles
 SCF Done:  E(RB3LYP) =  -975.119340301     A.U. after   11 cycles
 SCF Done:  E(RB3LYP) =  -975.119344166     A.U. after   11 cycles
 SCF Done:  E(RB3LYP) =  -975.119345503     A.U. after   10 cycles
 SCF Done:  E(RB3LYP) =  -975.119346099     A.U. after    9 cycles
 SCF Done:  E(RB3LYP) =  -975.119346625     A.U. after    9 cycles
 SCF Done:  E(RB3LYP) =  -975.119346689     A.U. after    8 cycles
 Optimization completed.
    -- Stationary point found.
 Normal termination of Gaussian 16 at Wed Aug 14 18:54:52 2024.

 ----------------------------------------------------------------------
 #N Geom=AllCheck Guess=TCheck SCRF=Check GenChk RB3LYP/6-31G(d,p) Freq
 ----------------------------------------------------------------------

 Structure from the checkpoint file:  "pyrd11_conf-1.chk"
 ----------
 pyrd11.xyz
 ----------
 Charge =  0 Multiplicity = 1

 SCF Done:  E(RB3LYP) =  -975.119346689     A.U. after    1 cycles

                      1                      2                      3
                      A                      A                      A
 Frequencies --     24.7157                62.9591                75.4268
 Red. masses --      2.4495                 1.6390                 4.1382
 Frc consts  --      0.0009                 0.0038                 0.0139
 IR Inten    --      1.4346                 0.7961                 0.7742

                      4                      5                      6
                      A                      A                      A
 Frequencies --    122.4903               143.5593               166.5362
 Red. masses --      1.7308                 1.6234                 4.5597
 Frc consts  --      0.0153                 0.0197                 0.0745
 IR Inten    --      1.8006                 0.7636                 5.2571

                      7                      8                      9
                      A                      A                      A
 Frequencies --    211.6946               250.1325               277.7110
 Red. masses --      6.0952                 5.7813                 4.5455
 Frc consts  --      0.1609                 0.2131                 0.2065
 IR Inten    --      0.2833                 2.2443                 0.5768

                     10                     11                     12
                      A                      A                      A
 Frequencies --    329.8862               351.3000               381.4232
 Red. masses --      4.4493                 3.7943                 5.1188
 Frc consts  --      0.2853                 0.2759                 0.4388
 IR Inten    --      3.4405                17.9353                 2.7312

                     13                     14                     15
                      A                      A                      A
 Frequencies --    422.4250               487.1386               535.7731
 Red. masses --      9.0354                 4.1524                 4.0558
 Frc consts  --      0.9499                 0.5806                 0.6859
 IR Inten    --      3.9821                 1.8822                 4.4172

                     16                     17                     18
                      A                      A                      A
 Frequencies --    570.0732               616.7770               730.8124
 Red. masses --      5.8563                 6.5362                 6.3053
 Frc consts  --      1.1213                 1.4650                 1.9841
 IR Inten    --      7.2556                 1.8512                13.5467

                     19                     20                     21
                      A                      A                      A
 Frequencies --    748.5132               808.1705               819.8435
 Red. masses --      6.9382                 5.2604                 5.8705
 Frc consts  --      2.2903                 2.0243                 2.3248
 IR Inten    --     58.9992                 7.2755                13.1390

                     22                     23                     24
                      A                      A                      A
 Frequencies --    856.5906               870.2819               979.1940
 Red. masses --      1.4109                 5.0652                 1.3753
 Frc consts  --      0.6100                 2.2603                 0.7769
 IR Inten    --     13.7334                 5.3356                 0.0660

                     25                     26                     27
                      A                      A                      A
 Frequencies --   1005.9797              1048.9496              1060.7665
 Red. masses --      3.7586                 1.9383                 1.5180
 Frc consts  --      2.2411                 1.2565                 1.0064
 IR Inten    --      4.4958                78.3313                 3.9480

                     28                     29                     30
                      A                      A                      A
 Frequencies --   1113.5288              1152.0717              1178.9269
 Red. masses --      2.1980                 4.7635                 1.2791
 Frc consts  --      1.6058                 3.7251                 1.0475
 IR Inten    --     34.6029                30.9161                 0.8274

                     31                     32                     33
                      A                      A                      A
 Frequencies --   1211.0276              1233.1456              1257.2589
 Red. masses --      1.6224                 2.5127                 2.3489
 Frc consts  --      1.4019                 2.2512                 2.1876
 IR Inten    --      2.3383                15.5323               146.0936

                     34                     35                     36
                      A                      A                      A
 Frequencies --   1295.1252              1340.4283              1433.4422
 Red. masses --      6.4795                 3.8823                 1.4967
 Frc consts  --      6.4035                 4.1098                 1.8120
 IR Inten    --    150.5214               237.0215                20.5587

                     37                     38                     39
                      A                      A                      A
 Frequencies --   1437.1671              1474.2194              1483.4468
 Red. masses --      2.1792                 1.8127                 1.2757
 Frc consts  --      2.6519                 2.3211                 1.6540
 IR Inten    --     25.6138                11.1608                23.0563

                     40                     41                     42
                      A                      A                      A
 Frequencies --   1493.5404              1496.1976              1505.3210
 Red. masses --      1.1358                 1.0469                 1.2500
 Frc consts  --      1.4928                 1.3809                 1.6689
 IR Inten    --     20.9039                 5.8676                 6.5054

                     43                     44                     45
                      A                      A                      A
 Frequencies --   1508.3865              1598.5148              1624.3018
 Red. masses --      1.0627                 5.0757                 8.5282
 Frc consts  --      1.4246                 7.6416                13.2569
 IR Inten    --      7.1379                49.5801                12.6713

                     46                     47                     48
                      A                      A                      A
 Frequencies --   1797.5524              3063.4574              3065.0021
 Red. masses --     11.3746                 1.0448                 1.0302
 Frc consts  --     21.6545                 5.7769                 5.7019
 IR Inten    --    184.4995                 7.1845                35.1535

                     49                     50                     51
                      A                      A                      A
 Frequencies --   3126.2892              3141.3596              3176.9228
 Red. masses --      1.0957                 1.1068                 1.0904
 Frc consts  --      6.3093                 6.4349                 6.4840
 IR Inten    --      9.8216                20.1343                19.4049

                     52                     53                     54
                      A                      A                      A
 Frequencies --   3179.8066              3197.6650              3229.0786
 Red. masses --      1.1068                 1.0983                 1.0946
 Frc consts  --      6.5933                 6.6165                 6.7243
 IR Inten    --     16.3111                 1.8688                 2.3795

 - Thermochemistry -
 -------------------
 Temperature   298.150 Kelvin.  Pressure   1.00000 Atm.
 Atom     1 has atomic number 17 and mass  34.96885

 Molecular mass:   185.02436 amu.
 Principal axes and moments of inertia in atomic units:
                                 1                 2                 3
     Eigenvalues --         1012.655466       3719.942233       4628.418379
           X                   0.999940          0.010186          0.004006
           Y                  -0.010214          0.999922          0.007176
           Z                  -0.003933         -0.007216          0.999966
 This molecule is an asymmetric top.
 Rotational symmetry number  1.
 Warning -- assumption of classical behavior for rotation
           may cause significant error
 Rotational temperatures (Kelvin)      0.08553     0.02328     0.01871
 Rotational constants (GHZ):           1.78219     0.48515     0.38993
 Zero-point vibrational energy     393405.8 (Joules/Mol)
                                   94.02623 (Kcal/Mol)
 Warning -- explicit consideration of  17 degrees of freedom as
           vibrations may cause significant error
 Vibrational temperatures:     35.56    90.58   108.52   176.24   206.55
          (Kelvin)            239.61   304.58   359.88   399.56   474.63
                              505.44   548.78   607.78   700.88   770.86
                              820.21   887.40  1051.48  1076.94  1162.78
                             1179.57  1232.44  1252.14  1408.84  1447.38
                             1509.20  1526.21  1602.12  1657.57  1696.21
                             1742.40  1774.22  1808.92  1863.40  1928.58
                             2062.40  2067.76  2121.07  2134.35  2148.87
                             2152.69  2165.82  2170.23  2299.91  2337.01
                             2586.28  4407.63  4409.85  4498.03  4519.72
                             4570.88  4575.03  4600.73  4645.92

 Zero-point correction=                           0.149840 (Hartree/Particle)
 Thermal correction to Energy=                    0.161495
 Thermal correction to Enthalpy=                  0.162439
 Thermal correction to Gibbs Free Energy=         0.110406
 Sum of electronic and zero-point Energies=           -974.969506
 Sum of electronic and thermal Energies=              -974.957852
 Sum of electronic and thermal Enthalpies=            -974.956907
 Sum of electronic and thermal Free Energies=         -975.008941

                     E (Thermal)             CV                S
                      KCal/Mol        Cal/Mol-Kelvin    Cal/Mol-Kelvin
 Total                  101.340             41.186            109.514
 Electronic               0.000              0.000              0.000
 Translational            0.889              2.981             41.552
 Rotational               0.889              2.981             31.234
 Vibrational             99.562             35.225             36.728
 Vibration     1          0.593              1.985              6.214
 Vibration     2          0.597              1.972              4.362
 Vibration     3          0.599              1.965              4.006
 Vibration     4          0.610              1.930              3.061
 Vibration     5          0.616              1.910              2.756
 Vibration     6          0.624              1.884              2.474
 Vibration     7          0.643              1.823              2.029
 Vibration     8          0.663              1.763              1.730
 Vibration     9          0.679              1.715              1.548
 Vibration    10          0.713              1.616              1.261
 Vibration    11          0.728              1.573              1.160
 Vibration    12          0.751              1.510              1.034
 Vibration    13          0.785              1.421              0.884
 Vibration    14          0.843              1.279              0.691
 Vibration    15          0.891              1.171              0.574
 Vibration    16          0.926              1.096              0.504
 Vibration    17          0.976              0.996              0.422

                           ! Non-Optimized Parameters !
 Normal termination of Gaussian 16 at Wed Aug 14 18:56:14 2024.

 ----------------------------------------------------------------------
 # M062X/def2tzvp int=(grid=ultrafine) pop=nbo7 polar prop=efg volume g
 uess=read geom=check
 ----------------------------------------------------------------------

 ----------
 pyrd11.xyz
 ----------
 Structure from the checkpoint file:  "pyrd11_conf-1.chk"
 Charge =  0 Multiplicity = 1

 SCF Done:  E(RM062X) =  -975.060507568     A.U. after   12 cycles

  Exact polarizability:     155.092      -1.255     126.819      -0.213      -0.285      71.389
 Approx polarizability:     174.887      -3.544     169.528      -1.519      -2.715     100.195

 Summary of Natural Population Analysis:

                                     Natural Population
             Natural    ---------------------------------------------
  Atom No    Charge        Core      Valence    Rydberg      Total
 --------------------------------------------------------------------
   Cl  1    0.00860      9.99998     6.97403    0.01739    16.99140
    C  2    0.00016      1.99999     3.97539    0.02446     5.99984
    C  3   -0.03020      1.99999     4.01259    0.01762     6.03020
    C  4   -0.63862      1.99999     4.62785    0.01077     6.63862
    C  5    0.09073      1.99999     3.88731    0.02197     5.90927
    C  6    0.76422      1.99999     3.20045    0.03534     5.23578
    O  7   -0.46821      2.00000     6.44532    0.02290     8.46821
    C  8   -0.26326      1.99999     4.24848    0.01479     6.26326
    O  9   -0.59665      2.00000     6.57133    0.02533     8.59665
    N 10   -0.37854      1.99999     5.34851    0.03004     7.37854
    C 11    0.03462      1.99999     3.94350    0.02189     5.96538
    C 12   -0.25193      1.99999     4.23433    0.01760     6.25193
    H 13    0.24639      0.00000     0.75228    0.00133     0.75361
    H 14    0.23823      0.00000     0.76044    0.00133     0.76177
    H 15    0.22629      0.00000     0.77230    0.00142     0.77371
    H 16    0.19026      0.00000     0.80814    0.00160     0.80974
    H 17    0.19224      0.00000     0.80620    0.00156     0.80776
    H 18    0.19584      0.00000     0.80301    0.00114     0.80416
    H 19    0.20250      0.00000     0.79605    0.00145     0.79750
    H 20    0.23732      0.00000     0.76137    0.00132     0.76268
 ====================================================================
 * Total *  0.00000     31.99990    63.72885    0.27125    96.00000

 Normal termination of Gaussian 16 at Wed Aug 14 19:01:20 2024.
 Gaussian 16:  ES64L-G16RevC.01  3-Jul-2019

 --------------------------------------------------------------------
 # M062X/def2tzvp int=(grid=ultrafine) nmr=giao guess=read geom=check
 --------------------------------------------------------------------

 ----------
 pyrd11.xyz
 ----------
 Structure from the checkpoint file:  "pyrd11_conf-1.chk"
 Charge =  0 Multiplicity = 1

                         Standard orientation:
 ---------------------------------------------------------------------
 Center     Atomic      Atomic             Coordinates (Angstroms)
 Number     Number       Type             X           Y           Z
 ---------------------------------------------------------------------
      1         17           0        3.372091   -0.645182   -0.109153
      2          6           0        1.843625    0.212438   -0.020570
      3          6           0        0.632116   -0.496561   -0.023664
      4          6           0        0.609357   -1.997111   -0.133564
      5          6           0       -0.525106    0.309618    0.069281
      6          6           0       -1.890456   -0.321793    0.150285
      7          8           0       -2.840098    0.468753   -0.371897
      8          6           0       -4.175718   -0.051321   -0.279665
      9          8           0       -2.116178   -1.412496    0.638730
     10          7           0       -0.517289    1.648097    0.135239
     11          6           0        0.659115    2.271081    0.134163
     12          6           0        1.876618    1.599000    0.060481
     13          1           0       -0.358316   -2.361151   -0.467782
     14          1           0        0.805539   -2.453102    0.842932
     15          1           0        1.390221   -2.337654   -0.816563
     16          1           0       -4.253653   -1.006704   -0.804295
     17          1           0       -4.457285   -0.200337    0.765397
     18          1           0       -4.812657    0.698550   -0.746691
     19          1           0        0.635530    3.356444    0.196516
     20          1           0        2.819002    2.133208    0.064277
 ---------------------------------------------------------------------

 SCF Done:  E(RM062X) =  -975.060507568     A.U. after    1 cycles

      1  Cl   Isotropic =   673.3333   Anisotropy =   393.3727

      2  C    Isotropic =     7.4414   Anisotropy =   159.6310

      3  C    Isotropic =    25.5434   Anisotropy =   212.9287

      4  C    Isotropic =   167.6098   Anisotropy =    16.6618

      5  C    Isotropic =    11.0483   Anisotropy =   172.4373

      6  C    Isotropic =    -2.2492   Anisotropy =   110.4749

      7  O    Isotropic =   120.9608   Anisotropy =   173.2504

      8  C    Isotropic =   130.5663   Anisotropy =    71.0842

      9  O    Isotropic =  -171.2505   Anisotropy =   722.0154

     10  N    Isotropic =  -147.0971   Anisotropy =   656.8222

     11  C    Isotropic =    15.7189   Anisotropy =   193.2814

     12  C    Isotropic =    38.4039   Anisotropy =   175.3431

     13  H    Isotropic =    28.6384   Anisotropy =     9.3706

     14  H    Isotropic =    29.4255   Anisotropy =     8.5320

     15  H    Isotropic =    29.4082   Anisotropy =     6.7246

     16  H    Isotropic =    27.9635   Anisotropy =     7.7280

     17  H    Isotropic =    28.0154   Anisotropy =     7.9941

     18  H    Isotropic =    28.1020   Anisotropy =     7.4842

     19  H    Isotropic =    22.6318   Anisotropy =     7.1658

     20  H    Isotropic =    23.8140   Anisotropy =     9.5546

 The electronic state is 1-A.
 Alpha  occ. eigenvalues -- -102.66205 -19.67714 -19.62503 -14.76741 -10.68305
 Alpha  occ. eigenvalues --  -10.63208 -10.60804 -10.59423 -10.59413 -10.58944
 Alpha  occ. eigenvalues --  -10.57439 -10.54160  -9.82449  -7.54645  -7.54141
 Alpha  occ. eigenvalues --   -7.54110  -1.24012  -1.14574  -1.07625  -0.99484
 Alpha  occ. eigenvalues --   -0.91039  -0.89152  -0.83835  -0.80143  -0.74350
 Alpha  occ. eigenvalues --   -0.70632  -0.66115  -0.61831  -0.59937  -0.57377
 Alpha  occ. eigenvalues --   -0.57169  -0.56003  -0.52419  -0.52093  -0.49762
 Alpha  occ. eigenvalues --   -0.48686  -0.47548  -0.47006  -0.46785  -0.45300
 Alpha  occ. eigenvalues --   -0.43679  -0.43187  -0.39472  -0.38190  -0.37264
 Alpha  occ. eigenvalues --   -0.33979  -0.33854  -0.32693
 Alpha virt. eigenvalues --   -0.03341  -0.00899   0.05336   0.06997   0.07444
 Alpha virt. eigenvalues --    0.09070   0.10301   0.11502   0.12565   0.13544
 Alpha virt. eigenvalues --    0.13846   0.14281   0.15093   0.16247   0.18185

 Mulliken charges:
               1
     1  Cl  -0.066474
     2  C    0.065499
     3  C   -0.007541
     4  C   -0.451454
     5  C    0.171243
     6  C    0.305837
     7  O   -0.235373
     8  C   -0.255198
     9  O   -0.355105
    10  N   -0.207205
    11  C   -0.073512
    12  C   -0.154632
    13  H    0.165292
    14  H    0.179344
    15  H    0.153181
    16  H    0.150606
    17  H    0.153861
    18  H    0.148374
    19  H    0.149622
    20  H    0.163636
 Sum of Mulliken charges =  -0.00000

 Dipole moment (field-independent basis, Debye):
    X=              0.2782    Y=              0.8150    Z=             -0.7667  Tot=              1.1530
 Quadrupole moment (field-independent basis, Debye-Ang):
   XX=            -68.1238   YY=            -74.9228   ZZ=            -77.9508
   XY=              2.4575   XZ=              2.4526   YZ=              2.4877

 Normal termination of Gaussian 16 at Wed Aug 14 19:03:20 2024.
