 Gaussian 16, Revision C.01,

 ----------------------------------------------------------------------
 # B3LYP/6-31G(d,p) symmetry=loose empiricaldispersion=GD3BJ int=(grid=
 ultrafine) opt freq=noraman
 ----------------------------------------------------------------------

 ----------
 pyrd10.xyz
 ----------
 Symbolic Z-matrix:
 Charge =  0 Multiplicity = 1

 SCF Done:  E(RB3LYP) =  -2937.38147252     A.U. after   14 cycles
 SCF Done:  E(RB3LYP) =  -2937.38335116     A.U. after   11 cycles
 SCF Done:  E(RB3LYP) =  -2937.38350037     A.U. after   10 cycles
 SCF Done:  E(RB3LYP) =  -2937.38350773     A.U. after    8 cycles
 SCF Done:  E(RB3LYP) =  -2937.38350818     A.U. after    7 cycles
 Optimization completed.
    -- Stationary point found.
 Normal termination of Gaussian 16 at Wed Aug 14 18:46:37 2024.

 ----------------------------------------------------------------------
 #N Geom=AllCheck Guess=TCheck SCRF=Check GenChk RB3LYP/6-31G(d,p) Freq
 ----------------------------------------------------------------------

 Structure from the checkpoint file:  "pyrd10_conf-11.chk"
 ----------
 pyrd10.xyz
 ----------
 Charge =  0 Multiplicity = 1

 SCF Done:  E(RB3LYP) =  -2937.38350639     A.U. after    4 cycles

                      1                      2                      3
                     A"                     A'                     A"
 Frequencies --      6.8907                71.8795                95.1660
 Red. masses --      3.7089                 7.0494                 2.4300
 Frc consts  --      0.0001                 0.0215                 0.0130
 IR Inten    --      0.0170                 0.3407                 0.4036

                      4                      5                      6
                     A"                     A'                     A"
 Frequencies --    104.1185               203.7504               212.4404
 Red. masses --      2.1463                 7.5042                 2.7877
 Frc consts  --      0.0137                 0.1835                 0.0741
 IR Inten    --      0.0993                 1.9105                 0.8108

                      7                      8                      9
                     A'                     A"                     A'
 Frequencies --    256.0871               408.9292               427.4132
 Red. masses --      4.6394                 3.1211                 3.8810
 Frc consts  --      0.1793                 0.3075                 0.4177
 IR Inten    --      1.8099                 2.9706                 5.4011

                     10                     11                     12
                     A"                     A'                     A'
 Frequencies --    467.9023               573.0115               639.3504
 Red. masses --      3.1266                 5.5249                 7.4023
 Frc consts  --      0.4033                 1.0688                 1.7828
 IR Inten    --      0.1251                 7.7196                 3.8046

                     13                     14                     15
                     A'                     A"                     A"
 Frequencies --    674.1332               727.7635               748.3239
 Red. masses --      5.1857                 2.3397                 1.1017
 Frc consts  --      1.3885                 0.7301                 0.3635
 IR Inten    --     20.1059                18.8687                 0.2234

                     16                     17                     18
                     A"                     A'                     A"
 Frequencies --    790.9883               834.5839               843.7176
 Red. masses --      1.3228                 5.0199                 1.4079
 Frc consts  --      0.4876                 2.0601                 0.5905
 IR Inten    --     12.7316                 3.4968                 4.7996

                     19                     20                     21
                     A"                     A"                     A"
 Frequencies --    945.3294               965.7185               997.2356
 Red. masses --      1.3222                 1.3647                 1.3634
 Frc consts  --      0.6962                 0.7499                 0.7988
 IR Inten    --      0.0869                 0.1279                 0.0302

                     22                     23                     24
                     A"                     A'                     A'
 Frequencies --   1041.6232              1042.0768              1046.1869
 Red. masses --      1.3381                 4.1242                 3.7818
 Frc consts  --      0.8554                 2.6387                 2.4388
 IR Inten    --      2.8625                 6.6435                 3.6736

                     25                     26                     27
                     A'                     A'                     A'
 Frequencies --   1065.5747              1077.5512              1149.8120
 Red. masses --      3.4361                 2.6806                 1.4263
 Frc consts  --      2.2987                 1.8338                 1.1110
 IR Inten    --      0.5673                 0.2831                 6.0927

                     28                     29                     30
                     A"                     A'                     A'
 Frequencies --   1151.8271              1217.0200              1225.8209
 Red. masses --      1.2167                 1.4371                 1.7666
 Frc consts  --      0.9511                 1.2541                 1.5640
 IR Inten    --      0.0052                 9.9974                 9.3427

                     31                     32                     33
                     A'                     A'                     A"
 Frequencies --   1247.2259              1301.4216              1301.4524
 Red. masses --      1.4288                 3.3496                 1.2394
 Frc consts  --      1.3095                 3.3425                 1.2369
 IR Inten    --     15.5410                16.5803                 1.0793

                     34                     35                     36
                     A"                     A'                     A'
 Frequencies --   1333.5994              1333.8882              1376.5801
 Red. masses --      1.0706                 1.7818                 1.3591
 Frc consts  --      1.1218                 1.8679                 1.5175
 IR Inten    --      0.0022                18.2476                 0.6509

                     37                     38                     39
                     A'                     A'                     A'
 Frequencies --   1408.8103              1467.5230              1491.2592
 Red. masses --      1.4795                 2.1768                 1.1088
 Frc consts  --      1.7300                 2.7621                 1.4529
 IR Inten    --      7.3706                36.5004                 0.9553

                     40                     41                     42
                     A'                     A'                     A'
 Frequencies --   1498.7208              1518.8371              1527.7470
 Red. masses --      1.0948                 1.1334                 2.1015
 Frc consts  --      1.4489                 1.5404                 2.8899
 IR Inten    --      0.9968                 5.3962                16.1734

                     43                     44                     45
                     A'                     A'                     A'
 Frequencies --   1627.5611              1652.7595              3019.0308
 Red. masses --      5.1700                 5.5606                 1.0596
 Frc consts  --      8.0689                 8.9494                 5.6903
 IR Inten    --     12.1109                 1.8174                17.1657

                     46                     47                     48
                     A"                     A'                     A'
 Frequencies --   3047.6857              3062.9024              3104.0559
 Red. masses --      1.1019                 1.0596                 1.0566
 Frc consts  --      6.0305                 5.8567                 5.9983
 IR Inten    --     14.4566                 9.5746                15.1774

                     49                     50                     51
                     A"                     A'                     A"
 Frequencies --   3108.3504              3166.4440              3171.5172
 Red. masses --      1.1054                 1.0883                 1.1116
 Frc consts  --      6.2923                 6.4291                 6.5879
 IR Inten    --     12.4739                18.8520                 9.2868

                     52                     53                     54
                     A'                     A'                     A'
 Frequencies --   3174.1187              3183.3349              3207.1511
 Red. masses --      1.0902                 1.0898                 1.0963
 Frc consts  --      6.4714                 6.5069                 6.6439
 IR Inten    --     17.8166                21.6998                19.0350

 - Thermochemistry -
 -------------------
 Temperature   298.150 Kelvin.  Pressure   1.00000 Atm.
 Atom     1 has atomic number 35 and mass  78.91834

 Molecular mass:   198.99966 amu.
 Principal axes and moments of inertia in atomic units:
                                 1                 2                 3
     Eigenvalues --          485.038780       6816.108385       7267.584282
           X                  -0.231866          0.972748          0.000000
           Y                   0.972748          0.231866          0.000000
           Z                   0.000000          0.000000          1.000000
 This molecule is an asymmetric top.
 Rotational symmetry number  1.
 Warning -- assumption of classical behavior for rotation
           may cause significant error
 Rotational temperatures (Kelvin)      0.17857     0.01271     0.01192
 Rotational constants (GHZ):           3.72082     0.26478     0.24833
 Zero-point vibrational energy     432714.4 (Joules/Mol)
                                  103.42123 (Kcal/Mol)
 Warning -- explicit consideration of  11 degrees of freedom as
           vibrations may cause significant error
 Vibrational temperatures:      9.91   103.42   136.92   149.80   293.15
          (Kelvin)            305.65   368.45   588.36   614.95   673.21
                              824.44   919.88   969.93  1047.09  1076.67
                             1138.06  1200.78  1213.92  1360.12  1389.45
                             1434.80  1498.66  1499.32  1505.23  1533.12
                             1550.36  1654.32  1657.22  1751.02  1763.68
                             1794.48  1872.46  1872.50  1918.75  1919.17
                             1980.59  2026.96  2111.44  2145.59  2156.32
                             2185.27  2198.09  2341.70  2377.95  4343.71
                             4384.94  4406.83  4466.04  4472.22  4555.81
                             4563.11  4566.85  4580.11  4614.38

 Zero-point correction=                           0.164812 (Hartree/Particle)
 Thermal correction to Energy=                    0.174540
 Thermal correction to Enthalpy=                  0.175484
 Thermal correction to Gibbs Free Energy=         0.125648
 Sum of electronic and zero-point Energies=          -2937.218694
 Sum of electronic and thermal Energies=             -2937.208966
 Sum of electronic and thermal Enthalpies=           -2937.208022
 Sum of electronic and thermal Free Energies=        -2937.257859

                     E (Thermal)             CV                S
                      KCal/Mol        Cal/Mol-Kelvin    Cal/Mol-Kelvin
 Total                  109.526             34.809            104.890
 Electronic               0.000              0.000              0.000
 Translational            0.889              2.981             41.769
 Rotational               0.889              2.981             31.552
 Vibrational            107.748             28.848             31.568
 Vibration     1          0.593              1.987              8.751
 Vibration     2          0.598              1.967              4.101
 Vibration     3          0.603              1.953              3.551
 Vibration     4          0.605              1.946              3.376
 Vibration     5          0.639              1.835              2.099
 Vibration     6          0.643              1.822              2.023
 Vibration     7          0.666              1.753              1.688
 Vibration     8          0.773              1.451              0.930
 Vibration     9          0.789              1.411              0.867
 Vibration    10          0.825              1.321              0.743
 Vibration    11          0.929              1.090              0.498

 Optimization completed.
    -- Stationary point found.
 Normal termination of Gaussian 16 at Wed Aug 14 18:47:23 2024.

 ----------------------------------------------------------------------
 # M062X/def2tzvp int=(grid=ultrafine) pop=nbo7 polar prop=efg volume g
 uess=read geom=check
 ----------------------------------------------------------------------

 ----------
 pyrd10.xyz
 ----------
 Structure from the checkpoint file:  "pyrd10_conf-11.chk"
 Charge =  0 Multiplicity = 1

 SCF Done:  E(RM062X) =  -2939.78637311     A.U. after   11 cycles

  Exact polarizability:     117.943     -14.191     160.196       0.000      -0.000      75.459
 Approx polarizability:     163.730      -9.808     171.146       0.000      -0.000     105.672

 Summary of Natural Population Analysis:

                                     Natural Population
             Natural    ---------------------------------------------
  Atom No    Charge        Core      Valence    Rydberg      Total
 --------------------------------------------------------------------
   Br  1   -0.03963     27.99997     7.02943    0.01023    35.03963
    C  2   -0.39065      1.99999     4.37236    0.01829     6.39065
    C  3   -0.42957      1.99999     4.41361    0.01597     6.42957
    C  4   -0.41693      1.99999     4.40500    0.01193     6.41693
    C  5   -0.05802      1.99999     4.04182    0.01620     6.05802
    C  6    0.02177      1.99999     3.95699    0.02124     5.97823
    N  7   -0.40802      1.99999     5.37604    0.03198     7.40802
    C  8    0.02503      1.99999     3.95255    0.02243     5.97497
    C  9   -0.24973      1.99999     4.23368    0.01606     6.24973
    C 10   -0.16989      1.99999     4.15352    0.01638     6.16989
    H 11    0.21498      0.00000     0.78308    0.00195     0.78502
    H 12    0.21498      0.00000     0.78308    0.00195     0.78502
    H 13    0.21616      0.00000     0.78179    0.00206     0.78384
    H 14    0.21616      0.00000     0.78179    0.00206     0.78384
    H 15    0.21478      0.00000     0.78320    0.00202     0.78522
    H 16    0.21478      0.00000     0.78320    0.00202     0.78522
    H 17    0.19463      0.00000     0.80385    0.00152     0.80537
    H 18    0.19494      0.00000     0.80365    0.00141     0.80506
    H 19    0.22120      0.00000     0.77768    0.00112     0.77880
    H 20    0.21304      0.00000     0.78550    0.00146     0.78696
 ====================================================================
 * Total *  0.00000     45.99990    53.80183    0.19827   100.00000

 Normal termination of Gaussian 16 at Wed Aug 14 18:49:58 2024.
 Gaussian 16:  ES64L-G16RevC.01  3-Jul-2019

 --------------------------------------------------------------------
 # M062X/def2tzvp int=(grid=ultrafine) nmr=giao guess=read geom=check
 --------------------------------------------------------------------

 ----------
 pyrd10.xyz
 ----------
 Structure from the checkpoint file:  "pyrd10_conf-11.chk"
 Charge =  0 Multiplicity = 1

                         Standard orientation:
 ---------------------------------------------------------------------
 Center     Atomic      Atomic             Coordinates (Angstroms)
 Number     Number       Type             X           Y           Z
 ---------------------------------------------------------------------
      1         35           0       -1.068787    3.283824    0.000000
      2          6           0        0.466920    2.039742    0.000000
      3          6           0        0.000000    0.594455    0.000000
      4          6           0        1.197064   -0.363242   -0.000000
      5          6           0        0.856585   -1.839676   -0.000000
      6          6           0       -0.454377   -2.328394   -0.000000
      7          7           0       -0.777797   -3.629108   -0.000000
      8          6           0        0.222913   -4.513607   -0.000000
      9          6           0        1.569680   -4.144684   -0.000000
     10          6           0        1.883992   -2.791068   -0.000000
     11          1           0        1.043209    2.291617   -0.890470
     12          1           0        1.043209    2.291617    0.890470
     13          1           0       -0.628103    0.420012    0.879458
     14          1           0       -0.628103    0.420012   -0.879458
     15          1           0        1.826962   -0.150621    0.874650
     16          1           0        1.826962   -0.150621   -0.874650
     17          1           0       -1.296283   -1.641423   -0.000000
     18          1           0       -0.061727   -5.563822   -0.000000
     19          1           0        2.347483   -4.901387   -0.000000
     20          1           0        2.921867   -2.466617   -0.000000
 ---------------------------------------------------------------------

 SCF Done:  E(RM062X) =  -2939.78637311     A.U. after    1 cycles

      1  Br   Isotropic =  2332.8768   Anisotropy =  1035.4449

      2  C    Isotropic =   139.1545   Anisotropy =    52.7231

      3  C    Isotropic =   150.6893   Anisotropy =    33.8070

      4  C    Isotropic =   151.4002   Anisotropy =    38.9492

      5  C    Isotropic =    28.6690   Anisotropy =   219.9996

      6  C    Isotropic =    14.6598   Anisotropy =   199.2376

      7  N    Isotropic =  -155.5752   Anisotropy =   688.7108

      8  C    Isotropic =    12.5514   Anisotropy =   205.1383

      9  C    Isotropic =    41.6143   Anisotropy =   200.3148

     10  C    Isotropic =    25.7980   Anisotropy =   217.9063

     11  H    Isotropic =    28.4923   Anisotropy =     9.7942

     12  H    Isotropic =    28.4923   Anisotropy =     9.7942

     13  H    Isotropic =    29.5125   Anisotropy =     4.7845

     14  H    Isotropic =    29.5125   Anisotropy =     4.7845

     15  H    Isotropic =    29.1510   Anisotropy =     6.6213

     16  H    Isotropic =    29.1510   Anisotropy =     6.6213

     17  H    Isotropic =    22.3743   Anisotropy =    12.1904

     18  H    Isotropic =    22.4278   Anisotropy =     7.0248

     19  H    Isotropic =    23.9859   Anisotropy =     6.6332

     20  H    Isotropic =    23.6808   Anisotropy =     9.9077

 The electronic state is 1-A'.
 Alpha  occ. eigenvalues -- -485.36293 -63.34797 -57.16740 -57.16501 -57.16499
 Alpha  occ. eigenvalues --  -14.75224 -10.60341 -10.57865 -10.57863 -10.56726
 Alpha  occ. eigenvalues --  -10.56521 -10.56317 -10.55913 -10.55645  -9.01438
 Alpha  occ. eigenvalues --   -6.83839  -6.82966  -6.82957  -2.87205  -2.86893
 Alpha  occ. eigenvalues --   -2.86886  -2.86071  -2.86071  -1.05480  -0.94395
 Alpha  occ. eigenvalues --   -0.91323  -0.88090  -0.84021  -0.77179  -0.72662
 Alpha  occ. eigenvalues --   -0.70309  -0.68269  -0.60474  -0.57344  -0.56106
 Alpha  occ. eigenvalues --   -0.53571  -0.50862  -0.50751  -0.48606  -0.47447
 Alpha  occ. eigenvalues --   -0.46808  -0.44757  -0.43474  -0.42615  -0.40172
 Alpha  occ. eigenvalues --   -0.34693  -0.33861  -0.33854  -0.32718  -0.31568
 Alpha virt. eigenvalues --   -0.00515   0.01253   0.02559   0.05979   0.07943
 Alpha virt. eigenvalues --    0.08985   0.09571   0.10269   0.11952   0.13278
 Alpha virt. eigenvalues --    0.14217   0.14542   0.15008   0.15484   0.18147

 Mulliken charges:
               1
     1  Br  -0.150154
     2  C   -0.206439
     3  C   -0.344173
     4  C   -0.331364
     5  C    0.106432
     6  C   -0.099289
     7  N   -0.215021
     8  C   -0.060655
     9  C   -0.152158
    10  C   -0.151847
    11  H    0.168514
    12  H    0.168514
    13  H    0.172519
    14  H    0.172519
    15  H    0.160447
    16  H    0.160447
    17  H    0.159333
    18  H    0.144520
    19  H    0.143760
    20  H    0.154095
 Sum of Mulliken charges =  -0.00000

 Dipole moment (field-independent basis, Debye):
    X=              3.7226    Y=             -0.6038    Z=             -0.0000  Tot=              3.7713
 Quadrupole moment (field-independent basis, Debye-Ang):
   XX=            -70.7626   YY=            -79.0944   ZZ=            -74.7894
   XY=             -4.6754   XZ=             -0.0000   YZ=             -0.0000

 Normal termination of Gaussian 16 at Wed Aug 14 18:51:13 2024.
