 Gaussian 16, Revision C.01,

 ----------------------------------------------------------------------
 # B3LYP/6-31G(d,p) symmetry=loose empiricaldispersion=GD3BJ int=(grid=
 ultrafine) opt freq=noraman
 ----------------------------------------------------------------------

 ----------
 pyrd10.xyz
 ----------
 Symbolic Z-matrix:
 Charge =  0 Multiplicity = 1

 SCF Done:  E(RB3LYP) =  -2937.38319753     A.U. after   14 cycles
 SCF Done:  E(RB3LYP) =  -2937.38547689     A.U. after   11 cycles
 SCF Done:  E(RB3LYP) =  -2937.38566229     A.U. after   11 cycles
 SCF Done:  E(RB3LYP) =  -2937.38568589     A.U. after   10 cycles
 SCF Done:  E(RB3LYP) =  -2937.38570316     A.U. after   10 cycles
 SCF Done:  E(RB3LYP) =  -2937.38575942     A.U. after   11 cycles
 SCF Done:  E(RB3LYP) =  -2937.33071391     A.U. after   15 cycles
 SCF Done:  E(RB3LYP) =  -2937.38612090     A.U. after   13 cycles
 SCF Done:  E(RB3LYP) =  -2937.38513759     A.U. after   12 cycles
 SCF Done:  E(RB3LYP) =  -2937.38607304     A.U. after   12 cycles
 SCF Done:  E(RB3LYP) =  -2937.38619799     A.U. after   12 cycles
 SCF Done:  E(RB3LYP) =  -2937.38804639     A.U. after   13 cycles
 SCF Done:  E(RB3LYP) =  -2937.38808455     A.U. after   14 cycles
 SCF Done:  E(RB3LYP) =  -2937.38823109     A.U. after   12 cycles
 SCF Done:  E(RB3LYP) =  -2937.38823606     A.U. after    9 cycles
 SCF Done:  E(RB3LYP) =  -2937.38823707     A.U. after    8 cycles
 SCF Done:  E(RB3LYP) =  -2937.38823720     A.U. after    7 cycles
 Optimization completed.
    -- Stationary point found.
 Normal termination of Gaussian 16 at Wed Aug 14 18:50:27 2024.

 ----------------------------------------------------------------------
 #N Geom=AllCheck Guess=TCheck SCRF=Check GenChk RB3LYP/6-31G(d,p) Freq
 ----------------------------------------------------------------------

 Structure from the checkpoint file:  "pyrd10_conf-8.chk"
 ----------
 pyrd10.xyz
 ----------
 Charge =  0 Multiplicity = 1

 SCF Done:  E(RB3LYP) =  -2937.38823720     A.U. after    1 cycles

                      1                      2                      3
                      A                      A                      A
 Frequencies --     30.0251                34.2455                97.2078
 Red. masses --      4.6179                 4.7979                 3.5884
 Frc consts  --      0.0025                 0.0033                 0.0200
 IR Inten    --      3.1467                 1.9791                 0.1818

                      4                      5                      6
                      A                      A                      A
 Frequencies --    111.4494               228.4334               275.3906
 Red. masses --      5.9225                 2.0704                 3.2809
 Frc consts  --      0.0433                 0.0637                 0.1466
 IR Inten    --      0.4299                 0.5392                 0.6553

                      7                      8                      9
                      A                      A                      A
 Frequencies --    338.8434               377.1609               413.7902
 Red. masses --      2.3819                 3.6794                 3.2529
 Frc consts  --      0.1611                 0.3084                 0.3282
 IR Inten    --      0.2925                 2.7422                 2.7009

                     10                     11                     12
                      A                      A                      A
 Frequencies --    507.6320               561.9300               615.3986
 Red. masses --      4.0108                 3.6963                 5.3363
 Frc consts  --      0.6089                 0.6877                 1.1907
 IR Inten    --      0.8924                16.3351                 2.5355

                     13                     14                     15
                      A                      A                      A
 Frequencies --    652.4539               733.8914               769.8896
 Red. masses --      5.8369                 2.0437                 1.3682
 Frc consts  --      1.4640                 0.6485                 0.4778
 IR Inten    --      2.2813                19.7249                 6.8468

                     16                     17                     18
                      A                      A                      A
 Frequencies --    809.1502               836.3125               867.0199
 Red. masses --      1.8389                 1.7132                 2.7016
 Frc consts  --      0.7094                 0.7060                 1.1965
 IR Inten    --     13.0933                 2.2187                 3.1270

                     19                     20                     21
                      A                      A                      A
 Frequencies --    946.2798               963.0008               986.2771
 Red. masses --      1.3550                 1.4941                 1.8443
 Frc consts  --      0.7149                 0.8163                 1.0570
 IR Inten    --      0.6765                 2.5934                 9.6659

                     22                     23                     24
                      A                      A                      A
 Frequencies --    997.9814              1018.1711              1045.3688
 Red. masses --      1.3643                 1.6843                 3.9214
 Frc consts  --      0.8006                 1.0288                 2.5248
 IR Inten    --      0.1309                 1.2277                10.2581

                     25                     26                     27
                      A                      A                      A
 Frequencies --   1070.3309              1075.1312              1131.7995
 Red. masses --      2.4817                 2.4852                 1.3417
 Frc consts  --      1.6751                 1.6925                 1.0126
 IR Inten    --      1.9548                 0.3230                 2.2097

                     28                     29                     30
                      A                      A                      A
 Frequencies --   1157.6648              1205.3046              1229.2425
 Red. masses --      1.2555                 1.3511                 1.6441
 Frc consts  --      0.9913                 1.1564                 1.4637
 IR Inten    --      2.7684                 9.4341                 3.3307

                     31                     32                     33
                      A                      A                      A
 Frequencies --   1253.3788              1276.1405              1311.3313
 Red. masses --      1.7141                 1.3548                 2.4138
 Frc consts  --      1.5866                 1.3000                 2.4456
 IR Inten    --      2.3720                41.5792                12.1637

                     34                     35                     36
                      A                      A                      A
 Frequencies --   1323.5392              1339.7374              1378.5043
 Red. masses --      1.7997                 1.2329                 1.2073
 Frc consts  --      1.8575                 1.3038                 1.3517
 IR Inten    --      3.3836                10.3544                 1.7976

                     37                     38                     39
                      A                      A                      A
 Frequencies --   1401.9199              1470.3681              1484.5367
 Red. masses --      1.5240                 2.3127                 1.0839
 Frc consts  --      1.7648                 2.9460                 1.4074
 IR Inten    --      2.3791                20.7302                 4.7680

                     40                     41                     42
                      A                      A                      A
 Frequencies --   1493.0021              1511.8758              1523.5117
 Red. masses --      1.1112                 1.1041                 2.2759
 Frc consts  --      1.4594                 1.4870                 3.1124
 IR Inten    --      0.1911                 3.5482                15.0509

                     43                     44                     45
                      A                      A                      A
 Frequencies --   1629.5778              1651.5619              3032.1971
 Red. masses --      5.2728                 5.8211                 1.0647
 Frc consts  --      8.2498                 9.3550                 5.7676
 IR Inten    --     12.0034                 1.4781                11.2329

                     46                     47                     48
                      A                      A                      A
 Frequencies --   3047.0348              3085.2151              3102.5993
 Red. masses --      1.0637                 1.0934                 1.0971
 Frc consts  --      5.8187                 6.1322                 6.2225
 IR Inten    --     21.5344                 3.7476                 6.5165

                     49                     50                     51
                      A                      A                      A
 Frequencies --   3111.8050              3144.9799              3166.9283
 Red. masses --      1.0645                 1.0897                 1.0892
 Frc consts  --      6.0731                 6.3503                 6.4360
 IR Inten    --     24.3148                32.0745                15.7141

                     52                     53                     54
                      A                      A                      A
 Frequencies --   3178.2515              3178.7125              3207.1462
 Red. masses --      1.0914                 1.1101                 1.0964
 Frc consts  --      6.4954                 6.6085                 6.6444
 IR Inten    --     12.9580                 7.5262                17.6557

 - Thermochemistry -
 -------------------
 Temperature   298.150 Kelvin.  Pressure   1.00000 Atm.
 Atom     1 has atomic number 35 and mass  78.91834

 Molecular mass:   198.99966 amu.
 Principal axes and moments of inertia in atomic units:
                                 1                 2                 3
     Eigenvalues --          577.104317       5726.111496       6082.443352
           X                   0.999831          0.018147         -0.002824
           Y                  -0.018116          0.999782          0.010417
           Z                   0.003012         -0.010364          0.999942
 This molecule is an asymmetric top.
 Rotational symmetry number  1.
 Warning -- assumption of classical behavior for rotation
           may cause significant error
 Rotational temperatures (Kelvin)      0.15008     0.01513     0.01424
 Rotational constants (GHZ):           3.12724     0.31518     0.29671
 Zero-point vibrational energy     432992.1 (Joules/Mol)
                                  103.48760 (Kcal/Mol)
 Warning -- explicit consideration of  12 degrees of freedom as
           vibrations may cause significant error
 Vibrational temperatures:     43.20    49.27   139.86   160.35   328.66
          (Kelvin)            396.23   487.52   542.65   595.35   730.37
                              808.49   885.42   938.74  1055.91  1107.70
                             1164.19  1203.27  1247.45  1361.49  1385.54
                             1419.03  1435.87  1464.92  1504.05  1539.97
                             1546.87  1628.41  1665.62  1734.16  1768.61
                             1803.33  1836.08  1886.71  1904.28  1927.58
                             1983.36  2017.05  2115.53  2135.92  2148.10
                             2175.25  2191.99  2344.60  2376.23  4362.66
                             4384.00  4438.94  4463.95  4477.19  4524.92
                             4556.50  4572.80  4573.46  4614.37

 Zero-point correction=                           0.164918 (Hartree/Particle)
 Thermal correction to Energy=                    0.174459
 Thermal correction to Enthalpy=                  0.175403
 Thermal correction to Gibbs Free Energy=         0.126907
 Sum of electronic and zero-point Energies=          -2937.223319
 Sum of electronic and thermal Energies=             -2937.213778
 Sum of electronic and thermal Enthalpies=           -2937.212834
 Sum of electronic and thermal Free Energies=        -2937.261330

                     E (Thermal)             CV                S
                      KCal/Mol        Cal/Mol-Kelvin    Cal/Mol-Kelvin
 Total                  109.475             34.640            102.069
 Electronic               0.000              0.000              0.000
 Translational            0.889              2.981             41.769
 Rotational               0.889              2.981             31.375
 Vibrational            107.697             28.679             28.925
 Vibration     1          0.594              1.984              5.828
 Vibration     2          0.594              1.983              5.567
 Vibration     3          0.603              1.951              3.510
 Vibration     4          0.607              1.940              3.244
 Vibration     5          0.651              1.798              1.891
 Vibration     6          0.677              1.719              1.562
 Vibration     7          0.719              1.598              1.218
 Vibration     8          0.748              1.519              1.051
 Vibration     9          0.777              1.440              0.913
 Vibration    10          0.863              1.233              0.639
 Vibration    11          0.918              1.114              0.520
 Vibration    12          0.975              0.999              0.424

 Optimization completed.
    -- Stationary point found.
 Normal termination of Gaussian 16 at Wed Aug 14 18:52:13 2024.

 ----------------------------------------------------------------------
 # M062X/def2tzvp int=(grid=ultrafine) pop=nbo7 polar prop=efg volume g
 uess=read geom=check
 ----------------------------------------------------------------------

 ----------
 pyrd10.xyz
 ----------
 Structure from the checkpoint file:  "pyrd10_conf-8.chk"
 Charge =  0 Multiplicity = 1

 SCF Done:  E(RM062X) =  -2939.78921406     A.U. after   11 cycles

  Exact polarizability:     152.957      -0.310     115.228       6.287       3.012      81.660
 Approx polarizability:     167.719      -5.999     162.504      10.042       5.255     112.543

 Summary of Natural Population Analysis:

                                     Natural Population
             Natural    ---------------------------------------------
  Atom No    Charge        Core      Valence    Rydberg      Total
 --------------------------------------------------------------------
   Br  1   -0.05818     27.99997     7.04793    0.01028    35.05818
    C  2   -0.38916      1.99999     4.37069    0.01848     6.38916
    C  3   -0.41675      1.99999     4.40296    0.01380     6.41675
    C  4   -0.42660      1.99999     4.41250    0.01411     6.42660
    C  5   -0.05854      1.99999     4.04140    0.01715     6.05854
    C  6    0.03009      1.99999     3.94777    0.02215     5.96991
    N  7   -0.41000      1.99999     5.37813    0.03188     7.41000
    C  8    0.02280      1.99999     3.95484    0.02236     5.97720
    C  9   -0.25013      1.99999     4.23397    0.01617     6.25013
    C 10   -0.17613      1.99999     4.15947    0.01666     6.17613
    H 11    0.22406      0.00000     0.77437    0.00157     0.77594
    H 12    0.21482      0.00000     0.78320    0.00198     0.78518
    H 13    0.21440      0.00000     0.78352    0.00208     0.78560
    H 14    0.21863      0.00000     0.77980    0.00157     0.78137
    H 15    0.22820      0.00000     0.76954    0.00226     0.77180
    H 16    0.21145      0.00000     0.78666    0.00188     0.78855
    H 17    0.18835      0.00000     0.81003    0.00162     0.81165
    H 18    0.19473      0.00000     0.80387    0.00141     0.80527
    H 19    0.22117      0.00000     0.77770    0.00113     0.77883
    H 20    0.21679      0.00000     0.78169    0.00152     0.78321
 ====================================================================
 * Total *  0.00000     45.99990    53.80004    0.20006   100.00000

 Normal termination of Gaussian 16 at Wed Aug 14 18:56:22 2024.
 Gaussian 16:  ES64L-G16RevC.01  3-Jul-2019

 --------------------------------------------------------------------
 # M062X/def2tzvp int=(grid=ultrafine) nmr=giao guess=read geom=check
 --------------------------------------------------------------------

 ----------
 pyrd10.xyz
 ----------
 Structure from the checkpoint file:  "pyrd10_conf-8.chk"
 Charge =  0 Multiplicity = 1

                         Standard orientation:
 ---------------------------------------------------------------------
 Center     Atomic      Atomic             Coordinates (Angstroms)
 Number     Number       Type             X           Y           Z
 ---------------------------------------------------------------------
      1         35           0       -3.015367    0.396665   -0.139107
      2          6           0       -1.998053   -1.144864    0.587703
      3          6           0       -0.529873   -0.805823    0.772813
      4          6           0        0.209749   -0.509926   -0.542076
      5          6           0        1.653499   -0.147907   -0.308602
      6          6           0        2.669581   -1.106019   -0.402934
      7          7           0        3.964361   -0.865304   -0.170410
      8          6           0        4.301640    0.382543    0.175997
      9          6           0        3.377548    1.420838    0.298839
     10          6           0        2.034959    1.147852    0.052911
     11          1           0       -2.490213   -1.387142    1.528344
     12          1           0       -2.156099   -1.949637   -0.130643
     13          1           0       -0.435246    0.048698    1.451225
     14          1           0       -0.053298   -1.660021    1.273263
     15          1           0       -0.306009    0.307561   -1.055964
     16          1           0        0.146266   -1.387791   -1.196161
     17          1           0        2.417574   -2.127055   -0.689198
     18          1           0        5.358908    0.561022    0.361018
     19          1           0        3.705817    2.417174    0.576671
     20          1           0        1.285334    1.930878    0.135163
 ---------------------------------------------------------------------

 SCF Done:  E(RM062X) =  -2939.78921406     A.U. after    1 cycles

      1  Br   Isotropic =  2375.2356   Anisotropy =   919.3244

      2  C    Isotropic =   136.3076   Anisotropy =    44.9517

      3  C    Isotropic =   143.4885   Anisotropy =    32.7669

      4  C    Isotropic =   150.1949   Anisotropy =    32.6909

      5  C    Isotropic =    25.0164   Anisotropy =   227.0980

      6  C    Isotropic =    10.2805   Anisotropy =   184.4981

      7  N    Isotropic =  -155.3156   Anisotropy =   678.1469

      8  C    Isotropic =    12.7830   Anisotropy =   205.8481

      9  C    Isotropic =    41.8076   Anisotropy =   203.9120

     10  C    Isotropic =    26.4184   Anisotropy =   220.7652

     11  H    Isotropic =    28.1809   Anisotropy =    11.1440

     12  H    Isotropic =    28.4642   Anisotropy =    11.0486

     13  H    Isotropic =    30.1921   Anisotropy =     5.0567

     14  H    Isotropic =    29.9594   Anisotropy =     7.7040

     15  H    Isotropic =    28.4932   Anisotropy =     6.5098

     16  H    Isotropic =    29.4790   Anisotropy =     7.5939

     17  H    Isotropic =    22.3978   Anisotropy =    10.7179

     18  H    Isotropic =    22.4516   Anisotropy =     7.0563

     19  H    Isotropic =    23.9522   Anisotropy =     7.1196

     20  H    Isotropic =    23.5581   Anisotropy =    10.6766

 The electronic state is 1-A.
 Alpha  occ. eigenvalues -- -485.36482 -63.34984 -57.16924 -57.16691 -57.16687
 Alpha  occ. eigenvalues --  -14.75118 -10.60484 -10.57747 -10.57715 -10.56306
 Alpha  occ. eigenvalues --  -10.56192 -10.56077 -10.55443 -10.55369  -9.01619
 Alpha  occ. eigenvalues --   -6.84008  -6.83156  -6.83142  -2.87374  -2.87072
 Alpha  occ. eigenvalues --   -2.87059  -2.86264  -2.86264  -1.05354  -0.94309
 Alpha  occ. eigenvalues --   -0.91076  -0.87804  -0.83768  -0.77716  -0.71979
 Alpha  occ. eigenvalues --   -0.70530  -0.67670  -0.60195  -0.57261  -0.55080
 Alpha  occ. eigenvalues --   -0.53915  -0.52098  -0.50245  -0.47761  -0.47349
 Alpha  occ. eigenvalues --   -0.46022  -0.45368  -0.43123  -0.41611  -0.40487
 Alpha  occ. eigenvalues --   -0.34799  -0.34170  -0.33982  -0.32629  -0.31209
 Alpha virt. eigenvalues --   -0.00211   0.01192   0.02587   0.06361   0.07963
 Alpha virt. eigenvalues --    0.08847   0.10235   0.10386   0.12102   0.13053
 Alpha virt. eigenvalues --    0.13383   0.14100   0.14764   0.15757   0.16531

 Mulliken charges:
               1
     1  Br  -0.162425
     2  C   -0.209980
     3  C   -0.275645
     4  C   -0.438478
     5  C    0.125310
     6  C   -0.085879
     7  N   -0.220809
     8  C   -0.055737
     9  C   -0.150998
    10  C   -0.149239
    11  H    0.175594
    12  H    0.169321
    13  H    0.172565
    14  H    0.157892
    15  H    0.190873
    16  H    0.163041
    17  H    0.142932
    18  H    0.144217
    19  H    0.142827
    20  H    0.164616
 Sum of Mulliken charges =  -0.00000

 Dipole moment (field-independent basis, Debye):
    X=             -0.5914    Y=              0.0168    Z=              0.9767  Tot=              1.1419
 Quadrupole moment (field-independent basis, Debye-Ang):
   XX=            -85.8668   YY=            -68.0629   ZZ=            -73.9636
   XY=             10.9112   XZ=              0.6189   YZ=              0.2012

 Normal termination of Gaussian 16 at Wed Aug 14 18:57:36 2024.
