 Gaussian 16, Revision C.01,

 ----------------------------------------------------------------------
 # B3LYP/6-31G(d,p) symmetry=loose empiricaldispersion=GD3BJ int=(grid=
 ultrafine) opt freq=noraman
 ----------------------------------------------------------------------

 ----------
 pyrd11.xyz
 ----------
 Symbolic Z-matrix:
 Charge =  0 Multiplicity = 1

 SCF Done:  E(RB3LYP) =  -975.109945580     A.U. after   15 cycles
 SCF Done:  E(RB3LYP) =  -975.115528137     A.U. after   13 cycles
 SCF Done:  E(RB3LYP) =  -975.114131999     A.U. after   13 cycles
 SCF Done:  E(RB3LYP) =  -975.116277439     A.U. after   12 cycles
 SCF Done:  E(RB3LYP) =  -975.116480567     A.U. after   12 cycles
 SCF Done:  E(RB3LYP) =  -975.116532348     A.U. after   10 cycles
 SCF Done:  E(RB3LYP) =  -975.116567875     A.U. after   10 cycles
 SCF Done:  E(RB3LYP) =  -975.116615476     A.U. after   11 cycles
 SCF Done:  E(RB3LYP) =  -975.116631115     A.U. after   10 cycles
 SCF Done:  E(RB3LYP) =  -975.116640075     A.U. after   10 cycles
 SCF Done:  E(RB3LYP) =  -975.116642103     A.U. after    9 cycles
 Optimization completed.
    -- Stationary point found.
 Normal termination of Gaussian 16 at Wed Aug 14 18:56:25 2024.

 ----------------------------------------------------------------------
 #N Geom=AllCheck Guess=TCheck SCRF=Check GenChk RB3LYP/6-31G(d,p) Freq
 ----------------------------------------------------------------------

 Structure from the checkpoint file:  "pyrd11_conf-2.chk"
 ----------
 pyrd11.xyz
 ----------
 Charge =  0 Multiplicity = 1

 SCF Done:  E(RB3LYP) =  -975.116642103     A.U. after    1 cycles

                      1                      2                      3
                      A                      A                      A
 Frequencies --     38.9192                65.5851                90.2161
 Red. masses --      4.7475                 3.5033                 1.8049
 Frc consts  --      0.0042                 0.0089                 0.0087
 IR Inten    --      1.4555                 0.2894                 0.2558

                      4                      5                      6
                      A                      A                      A
 Frequencies --    115.5826               131.5019               167.2056
 Red. masses --      1.6844                 1.2037                 4.5982
 Frc consts  --      0.0133                 0.0123                 0.0757
 IR Inten    --      1.8863                 0.0207                 5.0572

                      7                      8                      9
                      A                      A                      A
 Frequencies --    217.3502               243.1495               287.0869
 Red. masses --      5.9291                 5.0103                 4.0232
 Frc consts  --      0.1650                 0.1745                 0.1954
 IR Inten    --      0.8004                 2.2703                 4.6180

                     10                     11                     12
                      A                      A                      A
 Frequencies --    318.5966               329.5956               378.6926
 Red. masses --      3.8068                 6.6470                 4.6972
 Frc consts  --      0.2277                 0.4254                 0.3969
 IR Inten    --      4.3066                 0.8311                10.9130

                     13                     14                     15
                      A                      A                      A
 Frequencies --    396.7736               480.0178               530.1837
 Red. masses --      7.7933                 4.6757                 3.8879
 Frc consts  --      0.7229                 0.6348                 0.6439
 IR Inten    --      2.0944                 2.0577                 2.5741

                     16                     17                     18
                      A                      A                      A
 Frequencies --    591.4977               610.2809               733.4654
 Red. masses --      5.8270                 6.3258                 6.9548
 Frc consts  --      1.2012                 1.3881                 2.2044
 IR Inten    --      5.8235                 2.2035                37.7920

                     19                     20                     21
                      A                      A                      A
 Frequencies --    756.6307               806.7203               817.5197
 Red. masses --      6.4890                 5.7852                 5.7562
 Frc consts  --      2.1888                 2.2183                 2.2666
 IR Inten    --     38.1082                 2.7633                 9.8753

                     22                     23                     24
                      A                      A                      A
 Frequencies --    852.9397               868.4036               978.7229
 Red. masses --      1.3946                 4.7138                 1.3784
 Frc consts  --      0.5978                 2.0944                 0.7780
 IR Inten    --     16.8531                 0.9277                 0.2167

                     25                     26                     27
                      A                      A                      A
 Frequencies --   1004.1836              1044.5291              1060.5398
 Red. masses --      5.2450                 1.7070                 1.5308
 Frc consts  --      3.1162                 1.0973                 1.0144
 IR Inten    --     11.2398                64.3918                 4.1137

                     28                     29                     30
                      A                      A                      A
 Frequencies --   1111.5486              1146.4722              1179.0884
 Red. masses --      2.1646                 5.3292                 1.2818
 Frc consts  --      1.5757                 4.1271                 1.0499
 IR Inten    --      6.9666                83.8708                 1.3500

                     31                     32                     33
                      A                      A                      A
 Frequencies --   1210.7396              1227.7258              1240.8144
 Red. masses --      1.6721                 2.5034                 2.4599
 Frc consts  --      1.4442                 2.2232                 2.2314
 IR Inten    --      8.7788               180.4791                46.5807

                     34                     35                     36
                      A                      A                      A
 Frequencies --   1296.4026              1334.5643              1433.0649
 Red. masses --      6.6189                 3.2746                 2.6971
 Frc consts  --      6.5541                 3.4363                 3.2634
 IR Inten    --     54.6606               163.8625                 9.4428

                     37                     38                     39
                      A                      A                      A
 Frequencies --   1435.1802              1476.4879              1483.8998
 Red. masses --      1.3561                 1.3706                 1.6703
 Frc consts  --      1.6457                 1.7604                 2.1669
 IR Inten    --      1.5984                10.5526                20.4926

                     40                     41                     42
                      A                      A                      A
 Frequencies --   1494.0747              1495.5381              1508.8815
 Red. masses --      1.0731                 1.0499                 1.1574
 Frc consts  --      1.4114                 1.3836                 1.5525
 IR Inten    --     22.5391                 2.1828                 6.5881

                     43                     44                     45
                      A                      A                      A
 Frequencies --   1510.2980              1600.6323              1626.3425
 Red. masses --      1.1515                 5.0445                 8.9202
 Frc consts  --      1.5475                 7.6146                13.9011
 IR Inten    --      3.3746                78.0501                11.7315

                     46                     47                     48
                      A                      A                      A
 Frequencies --   1833.9120              3062.0593              3067.7131
 Red. masses --     12.0490                 1.0419                 1.0297
 Frc consts  --     23.8758                 5.7557                 5.7093
 IR Inten    --    223.1996                 8.6966                32.4402

                     49                     50                     51
                      A                      A                      A
 Frequencies --   3119.1648              3146.4592              3178.7604
 Red. masses --      1.0993                 1.1069                 1.0904
 Frc consts  --      6.3014                 6.4568                 6.4917
 IR Inten    --      8.3784                16.9031                19.8971

                     52                     53                     54
                      A                      A                      A
 Frequencies --   3179.9686              3186.5186              3229.4927
 Red. masses --      1.1073                 1.0979                 1.0946
 Frc consts  --      6.5975                 6.5682                 6.7260
 IR Inten    --     13.0830                 7.8682                 2.2978

 - Thermochemistry -
 -------------------
 Temperature   298.150 Kelvin.  Pressure   1.00000 Atm.
 Atom     1 has atomic number 17 and mass  34.96885

 Molecular mass:   185.02436 amu.
 Principal axes and moments of inertia in atomic units:
                                 1                 2                 3
     Eigenvalues --         1168.038626       3489.083260       4415.866464
           X                   0.999262          0.038066          0.005235
           Y                  -0.038009          0.999222         -0.010538
           Z                  -0.005632          0.010331          0.999931
 This molecule is an asymmetric top.
 Rotational symmetry number  1.
 Warning -- assumption of classical behavior for rotation
           may cause significant error
 Rotational temperatures (Kelvin)      0.07415     0.02482     0.01961
 Rotational constants (GHZ):           1.54510     0.51725     0.40869
 Zero-point vibrational energy     393162.8 (Joules/Mol)
                                   93.96818 (Kcal/Mol)
 Warning -- explicit consideration of  17 degrees of freedom as
           vibrations may cause significant error
 Vibrational temperatures:     56.00    94.36   129.80   166.30   189.20
          (Kelvin)            240.57   312.72   349.84   413.05   458.39
                              474.21   544.85   570.87   690.64   762.82
                              851.03   878.06  1055.29  1088.62  1160.69
                             1176.23  1227.19  1249.44  1408.16  1444.80
                             1502.84  1525.88  1599.27  1649.52  1696.45
                             1741.98  1766.42  1785.26  1865.23  1920.14
                             2061.86  2064.90  2124.34  2135.00  2149.64
                             2151.75  2170.94  2172.98  2302.95  2339.94
                             2638.59  4405.62  4413.75  4487.78  4527.05
                             4573.53  4575.27  4584.69  4646.52

 Zero-point correction=                           0.149748 (Hartree/Particle)
 Thermal correction to Energy=                    0.161426
 Thermal correction to Enthalpy=                  0.162370
 Thermal correction to Gibbs Free Energy=         0.110725
 Sum of electronic and zero-point Energies=           -974.966894
 Sum of electronic and thermal Energies=              -974.955216
 Sum of electronic and thermal Enthalpies=            -974.954272
 Sum of electronic and thermal Free Energies=         -975.005917

                     E (Thermal)             CV                S
                      KCal/Mol        Cal/Mol-Kelvin    Cal/Mol-Kelvin
 Total                  101.296             41.316            108.696
 Electronic               0.000              0.000              0.000
 Translational            0.889              2.981             41.552
 Rotational               0.889              2.981             31.265
 Vibrational             99.519             35.354             35.879
 Vibration     1          0.594              1.981              5.313
 Vibration     2          0.597              1.971              4.282
 Vibration     3          0.602              1.956              3.655
 Vibration     4          0.608              1.936              3.173
 Vibration     5          0.612              1.922              2.924
 Vibration     6          0.624              1.883              2.467
 Vibration     7          0.646              1.815              1.981
 Vibration     8          0.659              1.774              1.780
 Vibration     9          0.684              1.698              1.491
 Vibration    10          0.705              1.638              1.317
 Vibration    11          0.712              1.616              1.262
 Vibration    12          0.749              1.516              1.044
 Vibration    13          0.763              1.477              0.975
 Vibration    14          0.836              1.294              0.710
 Vibration    15          0.885              1.183              0.587
 Vibration    16          0.949              1.050              0.465
 Vibration    17          0.969              1.010              0.432

                           ! Non-Optimized Parameters !
 Normal termination of Gaussian 16 at Wed Aug 14 18:57:42 2024.

 ----------------------------------------------------------------------
 # M062X/def2tzvp int=(grid=ultrafine) pop=nbo7 polar prop=efg volume g
 uess=read geom=check
 ----------------------------------------------------------------------

 ----------
 pyrd11.xyz
 ----------
 Structure from the checkpoint file:  "pyrd11_conf-2.chk"
 Charge =  0 Multiplicity = 1

 SCF Done:  E(RM062X) =  -975.058052415     A.U. after   12 cycles

  Exact polarizability:     148.534       0.012     126.974      -3.191      -1.472      74.992
 Approx polarizability:     170.981      -7.032     165.188      -7.158      -0.355     105.258

 Summary of Natural Population Analysis:

                                     Natural Population
             Natural    ---------------------------------------------
  Atom No    Charge        Core      Valence    Rydberg      Total
 --------------------------------------------------------------------
   Cl  1    0.00819      9.99998     6.97447    0.01737    16.99181
    C  2    0.00466      1.99999     3.97091    0.02444     5.99534
    C  3   -0.04804      1.99999     4.03082    0.01723     6.04804
    C  4   -0.63354      1.99999     4.62300    0.01055     6.63354
    C  5    0.10363      1.99999     3.87339    0.02299     5.89637
    C  6    0.76559      1.99999     3.19806    0.03637     5.23441
    O  7   -0.49956      2.00000     6.47821    0.02135     8.49956
    C  8   -0.26600      1.99999     4.25090    0.01511     6.26600
    O  9   -0.55726      2.00000     6.53187    0.02539     8.55726
    N 10   -0.37884      1.99999     5.34884    0.03001     7.37884
    C 11    0.03856      1.99999     3.93964    0.02180     5.96144
    C 12   -0.25806      1.99999     4.24051    0.01756     6.25806
    H 13    0.23470      0.00000     0.76391    0.00138     0.76530
    H 14    0.23100      0.00000     0.76784    0.00116     0.76900
    H 15    0.23122      0.00000     0.76738    0.00140     0.76878
    H 16    0.19147      0.00000     0.80696    0.00157     0.80853
    H 17    0.19648      0.00000     0.80200    0.00153     0.80352
    H 18    0.19471      0.00000     0.80412    0.00117     0.80529
    H 19    0.20353      0.00000     0.79504    0.00143     0.79647
    H 20    0.23756      0.00000     0.76113    0.00131     0.76244
 ====================================================================
 * Total *  0.00000     31.99990    63.72899    0.27112    96.00000

 Normal termination of Gaussian 16 at Wed Aug 14 19:02:50 2024.
 Gaussian 16:  ES64L-G16RevC.01  3-Jul-2019

 --------------------------------------------------------------------
 # M062X/def2tzvp int=(grid=ultrafine) nmr=giao guess=read geom=check
 --------------------------------------------------------------------

 ----------
 pyrd11.xyz
 ----------
 Structure from the checkpoint file:  "pyrd11_conf-2.chk"
 Charge =  0 Multiplicity = 1

                         Standard orientation:
 ---------------------------------------------------------------------
 Center     Atomic      Atomic             Coordinates (Angstroms)
 Number     Number       Type             X           Y           Z
 ---------------------------------------------------------------------
      1         17           0        3.143343   -1.085086    0.000071
      2          6           0        1.810018    0.054751   -0.037031
      3          6           0        0.493985   -0.400101    0.129371
      4          6           0        0.197351   -1.854209    0.378147
      5          6           0       -0.492521    0.604807    0.075078
      6          6           0       -1.963063    0.302212    0.234581
      7          8           0       -2.361219   -0.683146   -0.601406
      8          6           0       -3.761194   -1.007620   -0.528433
      9          8           0       -2.702685    0.887096    0.989742
     10          7           0       -0.245992    1.909433   -0.096479
     11          6           0        1.021470    2.289580   -0.253682
     12          6           0        2.093560    1.400426   -0.234852
     13          1           0        0.381767   -2.445806   -0.524644
     14          1           0       -0.837740   -2.010696    0.672839
     15          1           0        0.853233   -2.246060    1.160030
     16          1           0       -4.025427   -1.341640    0.477617
     17          1           0       -4.366739   -0.134244   -0.779824
     18          1           0       -3.914923   -1.805801   -1.253391
     19          1           0        1.194815    3.352857   -0.400729
     20          1           0        3.113731    1.741139   -0.363512
 ---------------------------------------------------------------------

 SCF Done:  E(RM062X) =  -975.058052415     A.U. after    1 cycles

      1  Cl   Isotropic =   674.4334   Anisotropy =   391.0303

      2  C    Isotropic =     8.1111   Anisotropy =   160.6364

      3  C    Isotropic =    31.0949   Anisotropy =   204.5616

      4  C    Isotropic =   167.4356   Anisotropy =    17.3136

      5  C    Isotropic =     7.0754   Anisotropy =   176.4370

      6  C    Isotropic =    -1.1583   Anisotropy =   111.3320

      7  O    Isotropic =   119.2201   Anisotropy =   170.7759

      8  C    Isotropic =   131.1763   Anisotropy =    71.3951

      9  O    Isotropic =  -187.2866   Anisotropy =   735.4419

     10  N    Isotropic =  -147.8422   Anisotropy =   650.5958

     11  C    Isotropic =    14.3920   Anisotropy =   196.5636

     12  C    Isotropic =    39.5644   Anisotropy =   173.9329

     13  H    Isotropic =    29.4954   Anisotropy =     7.6737

     14  H    Isotropic =    29.3082   Anisotropy =     9.7537

     15  H    Isotropic =    29.5190   Anisotropy =     7.1611

     16  H    Isotropic =    27.9268   Anisotropy =     7.7655

     17  H    Isotropic =    27.9509   Anisotropy =     8.5458

     18  H    Isotropic =    28.2186   Anisotropy =     7.5396

     19  H    Isotropic =    22.5901   Anisotropy =     6.9264

     20  H    Isotropic =    23.8809   Anisotropy =     9.3340

 The electronic state is 1-A.
 Alpha  occ. eigenvalues -- -102.66378 -19.68315 -19.62579 -14.76709 -10.68286
 Alpha  occ. eigenvalues --  -10.63296 -10.60843 -10.59900 -10.59421 -10.58954
 Alpha  occ. eigenvalues --  -10.57359 -10.55094  -9.82620  -7.54815  -7.54312
 Alpha  occ. eigenvalues --   -7.54282  -1.24169  -1.14860  -1.07594  -0.99601
 Alpha  occ. eigenvalues --   -0.91498  -0.89060  -0.83978  -0.80879  -0.74416
 Alpha  occ. eigenvalues --   -0.70796  -0.66210  -0.62161  -0.60336  -0.57491
 Alpha  occ. eigenvalues --   -0.57223  -0.56075  -0.52540  -0.52325  -0.49785
 Alpha  occ. eigenvalues --   -0.49462  -0.48044  -0.47658  -0.46828  -0.45532
 Alpha  occ. eigenvalues --   -0.43836  -0.43493  -0.39809  -0.38511  -0.36993
 Alpha  occ. eigenvalues --   -0.34398  -0.33790  -0.32814
 Alpha virt. eigenvalues --   -0.02533  -0.00940   0.04973   0.06077   0.06477
 Alpha virt. eigenvalues --    0.08710   0.10388   0.11377   0.12585   0.12906
 Alpha virt. eigenvalues --    0.13205   0.13534   0.14971   0.15913   0.17577

 Mulliken charges:
               1
     1  Cl  -0.066560
     2  C    0.054423
     3  C    0.023577
     4  C   -0.466898
     5  C    0.188444
     6  C    0.270364
     7  O   -0.275710
     8  C   -0.256207
     9  O   -0.306892
    10  N   -0.211097
    11  C   -0.068390
    12  C   -0.155905
    13  H    0.177828
    14  H    0.150139
    15  H    0.164888
    16  H    0.156328
    17  H    0.160968
    18  H    0.146890
    19  H    0.150426
    20  H    0.163383
 Sum of Mulliken charges =  -0.00000

 Dipole moment (field-independent basis, Debye):
    X=              0.9263    Y=             -2.0618    Z=             -1.2291  Tot=              2.5728
 Quadrupole moment (field-independent basis, Debye-Ang):
   XX=            -71.4058   YY=            -73.7682   ZZ=            -79.1786
   XY=             12.1897   XZ=              4.3033   YZ=             -3.0467

 Normal termination of Gaussian 16 at Wed Aug 14 19:04:47 2024.
