 Gaussian 16, Revision C.01,

 ----------------------------------------------------------------------
 # B3LYP/6-31G(d,p) symmetry=loose empiricaldispersion=GD3BJ int=(grid=
 ultrafine) opt freq=noraman
 ----------------------------------------------------------------------

 ---------
 pyrz3.xyz
 ---------
 Symbolic Z-matrix:
 Charge =  0 Multiplicity = 1

 SCF Done:  E(RB3LYP) =  -531.550702344     A.U. after   15 cycles
 SCF Done:  E(RB3LYP) =  -531.556331387     A.U. after   12 cycles
 SCF Done:  E(RB3LYP) =  -531.556762651     A.U. after   11 cycles
 SCF Done:  E(RB3LYP) =  -531.556793115     A.U. after    9 cycles
 SCF Done:  E(RB3LYP) =  -531.556793830     A.U. after    9 cycles
 SCF Done:  E(RB3LYP) =  -531.556794869     A.U. after    9 cycles
 SCF Done:  E(RB3LYP) =  -531.556795301     A.U. after    8 cycles
 Optimization completed.
    -- Stationary point found.
 Normal termination of Gaussian 16 at Wed Aug 14 20:33:58 2024.

 ----------------------------------------------------------------------
 #N Geom=AllCheck Guess=TCheck SCRF=Check GenChk RB3LYP/6-31G(d,p) Freq
 ----------------------------------------------------------------------

 Structure from the checkpoint file:  "pyrz3_conf-1.chk"
 ---------
 pyrz3.xyz
 ---------
 Charge =  0 Multiplicity = 1

 SCF Done:  E(RB3LYP) =  -531.556795301     A.U. after    1 cycles

                      1                      2                      3
                      A                      A                      A
 Frequencies --     47.4532                60.6428                82.1257
 Red. masses --      3.1538                 1.3113                 2.8944
 Frc consts  --      0.0042                 0.0028                 0.0115
 IR Inten    --      2.0861                 0.0527                 0.2095

                      4                      5                      6
                      A                      A                      A
 Frequencies --    127.3934               142.6766               159.6201
 Red. masses --      1.1481                 4.1170                 3.2813
 Frc consts  --      0.0110                 0.0494                 0.0493
 IR Inten    --      0.2640                 2.5484                 1.5355

                      7                      8                      9
                      A                      A                      A
 Frequencies --    303.4354               307.0277               339.9488
 Red. masses --      4.0085                 4.8078                 5.2369
 Frc consts  --      0.2175                 0.2670                 0.3566
 IR Inten    --      7.9430                 3.8818                 1.7212

                     10                     11                     12
                      A                      A                      A
 Frequencies --    361.2266               417.0504               491.6412
 Red. masses --      3.5541                 3.7236                 4.2163
 Frc consts  --      0.2732                 0.3816                 0.6005
 IR Inten    --     12.9004                14.1622                 5.4613

                     13                     14                     15
                      A                      A                      A
 Frequencies --    499.8010               630.0267               664.2675
 Red. masses --      6.8647                 6.4998                 7.5686
 Frc consts  --      1.0103                 1.5201                 1.9677
 IR Inten    --      5.7437                 1.5615                 0.2369

                     16                     17                     18
                      A                      A                      A
 Frequencies --    733.7491               798.9633               818.9563
 Red. masses --      5.8783                 4.3648                 5.3451
 Frc consts  --      1.8647                 1.6416                 2.1122
 IR Inten    --      8.7621                 4.0248                13.2296

                     19                     20                     21
                      A                      A                      A
 Frequencies --    880.8200               926.8353               982.4612
 Red. masses --      6.2325                 1.4416                 1.3764
 Frc consts  --      2.8490                 0.7296                 0.7828
 IR Inten    --      1.6317                 1.8872                 0.5497

                     22                     23                     24
                      A                      A                      A
 Frequencies --   1000.5757              1019.6401              1055.5248
 Red. masses --      3.6185                 1.8736                 3.4074
 Frc consts  --      2.1344                 1.1477                 2.2367
 IR Inten    --      5.1754                 3.6979                47.1912

                     25                     26                     27
                      A                      A                      A
 Frequencies --   1064.0036              1171.0668              1179.2720
 Red. masses --      1.6284                 3.0502                 1.2780
 Frc consts  --      1.0862                 2.4646                 1.0472
 IR Inten    --      7.2626               123.9576                 0.8469

                     28                     29                     30
                      A                      A                      A
 Frequencies --   1222.4928              1260.9309              1277.2978
 Red. masses --      1.8718                 9.4697                 2.3601
 Frc consts  --      1.6482                 8.8709                 2.2686
 IR Inten    --     74.9623                31.7292                13.2950

                     31                     32                     33
                      A                      A                      A
 Frequencies --   1313.8914              1341.4069              1387.1395
 Red. masses --      1.7987                 2.3817                 4.9825
 Frc consts  --      1.8295                 2.5250                 5.6486
 IR Inten    --    285.2646               123.3173                70.1662

                     34                     35                     36
                      A                      A                      A
 Frequencies --   1424.4514              1482.0888              1488.1944
 Red. masses --      1.2784                 1.2520                 1.0445
 Frc consts  --      1.5284                 1.6203                 1.3630
 IR Inten    --      6.4039                28.0816                 5.9796

                     37                     38                     39
                      A                      A                      A
 Frequencies --   1496.1935              1499.5354              1508.1133
 Red. masses --      1.0465                 1.1190                 1.0571
 Frc consts  --      1.3803                 1.4826                 1.4165
 IR Inten    --      6.5240                13.6259                 7.1900

                     40                     41                     42
                      A                      A                      A
 Frequencies --   1525.8824              1587.3709              1626.9014
 Red. masses --      2.7672                 9.3093                 5.5938
 Frc consts  --      3.7961                13.8205                 8.7233
 IR Inten    --      8.0844                 4.8614                42.2734

                     43                     44                     45
                      A                      A                      A
 Frequencies --   1800.1246              3055.5233              3065.4445
 Red. masses --     11.6380                 1.0360                 1.0301
 Frc consts  --     22.2194                 5.6987                 5.7031
 IR Inten    --    197.0257                10.1762                34.1728

                     46                     47                     48
                      A                      A                      A
 Frequencies --   3119.8033              3142.0118              3143.6625
 Red. masses --      1.1008                 1.1068                 1.1033
 Frc consts  --      6.3127                 6.4380                 6.4242
 IR Inten    --      7.7194                20.2026                10.2092

                     49                     50                     51
                      A                      A                      A
 Frequencies --   3171.1863              3180.0516              3208.3297
 Red. masses --      1.0917                 1.1069                 1.0923
 Frc consts  --      6.4684                 6.5949                 6.6242
 IR Inten    --     26.7222                15.5122                 2.0141

 - Thermochemistry -
 -------------------
 Temperature   298.150 Kelvin.  Pressure   1.00000 Atm.
 Atom     1 has atomic number  6 and mass  12.00000

 Molecular mass:   152.05858 amu.
 Principal axes and moments of inertia in atomic units:
                                 1                 2                 3
     Eigenvalues --          504.865264       3021.078553       3503.438135
           X                   1.000000         -0.000353         -0.000000
           Y                   0.000353          1.000000         -0.000000
           Z                   0.000000          0.000000          1.000000
 This molecule is an asymmetric top.
 Rotational symmetry number  1.
 Warning -- assumption of classical behavior for rotation
           may cause significant error
 Rotational temperatures (Kelvin)      0.17156     0.02867     0.02472
 Rotational constants (GHZ):           3.57470     0.59738     0.51513
 Zero-point vibrational energy     386359.3 (Joules/Mol)
                                   92.34209 (Kcal/Mol)
 Warning -- explicit consideration of  13 degrees of freedom as
           vibrations may cause significant error
 Vibrational temperatures:     68.27    87.25   118.16   183.29   205.28
          (Kelvin)            229.66   436.58   441.74   489.11   519.72
                              600.04   707.36   719.10   906.47   955.73
                             1055.70  1149.53  1178.30  1267.30  1333.51
                             1413.54  1439.61  1467.03  1518.66  1530.86
                             1684.90  1696.71  1758.89  1814.20  1837.75
                             1890.40  1929.99  1995.78  2049.47  2132.40
                             2141.18  2152.69  2157.50  2169.84  2195.40
                             2283.87  2340.75  2589.98  4396.22  4410.49
                             4488.70  4520.65  4523.03  4562.63  4575.38
                             4616.07

 Zero-point correction=                           0.147156 (Hartree/Particle)
 Thermal correction to Energy=                    0.157623
 Thermal correction to Enthalpy=                  0.158567
 Thermal correction to Gibbs Free Energy=         0.109931
 Sum of electronic and zero-point Energies=           -531.409639
 Sum of electronic and thermal Energies=              -531.399172
 Sum of electronic and thermal Enthalpies=            -531.398228
 Sum of electronic and thermal Free Energies=         -531.446864

                     E (Thermal)             CV                S
                      KCal/Mol        Cal/Mol-Kelvin    Cal/Mol-Kelvin
 Total                   98.910             36.709            102.364
 Electronic               0.000              0.000              0.000
 Translational            0.889              2.981             40.967
 Rotational               0.889              2.981             30.059
 Vibrational             97.133             30.747             31.338
 Vibration     1          0.595              1.979              4.921
 Vibration     2          0.597              1.973              4.436
 Vibration     3          0.600              1.961              3.839
 Vibration     4          0.611              1.926              2.985
 Vibration     5          0.616              1.911              2.768
 Vibration     6          0.621              1.892              2.554
 Vibration     7          0.695              1.667              1.398
 Vibration     8          0.697              1.660              1.378
 Vibration     9          0.720              1.596              1.212
 Vibration    10          0.735              1.552              1.117
 Vibration    11          0.780              1.433              0.902
 Vibration    12          0.847              1.269              0.679
 Vibration    13          0.855              1.250              0.659

 Optimization completed.
    -- Stationary point found.
 Normal termination of Gaussian 16 at Wed Aug 14 20:34:55 2024.

 ----------------------------------------------------------------------
 # M062X/def2tzvp int=(grid=ultrafine) pop=nbo7 polar prop=efg volume g
 uess=read geom=check
 ----------------------------------------------------------------------

 ---------
 pyrz3.xyz
 ---------
 Structure from the checkpoint file:  "pyrz3_conf-1.chk"
 Charge =  0 Multiplicity = 1

 SCF Done:  E(RM062X) =  -531.500797508     A.U. after   12 cycles

  Exact polarizability:     146.611       3.933      98.567      -0.000      -0.000      61.174
 Approx polarizability:     153.836       6.800     139.761      -0.000       0.000      82.026

 Summary of Natural Population Analysis:

                                     Natural Population
             Natural    ---------------------------------------------
  Atom No    Charge        Core      Valence    Rydberg      Total
 --------------------------------------------------------------------
    C  1   -0.64343      1.99999     4.63329    0.01015     6.64343
    C  2    0.19083      1.99999     3.78930    0.01988     5.80917
    N  3   -0.39349      1.99999     5.36018    0.03332     7.39349
    C  4    0.05012      1.99999     3.92805    0.02184     5.94988
    C  5    0.01687      1.99999     3.96047    0.02267     5.98313
    C  6    0.75713      1.99999     3.20760    0.03528     5.24287
    O  7   -0.46857      2.00000     6.44567    0.02291     8.46857
    C  8   -0.26314      1.99999     4.24838    0.01476     6.26314
    O  9   -0.59329      2.00000     6.56811    0.02519     8.59329
    N 10   -0.33472      1.99999     5.30288    0.03184     7.33472
    C 11   -0.01133      1.99999     3.98955    0.02179     6.01133
    H 12    0.23631      0.00000     0.76244    0.00125     0.76369
    H 13    0.21620      0.00000     0.78281    0.00099     0.78380
    H 14    0.23630      0.00000     0.76244    0.00125     0.76370
    H 15    0.22487      0.00000     0.77375    0.00137     0.77513
    H 16    0.19196      0.00000     0.80648    0.00156     0.80804
    H 17    0.19570      0.00000     0.80315    0.00114     0.80430
    H 18    0.19196      0.00000     0.80648    0.00156     0.80804
    H 19    0.19972      0.00000     0.79884    0.00144     0.80028
 ====================================================================
 * Total *  0.00000     21.99992    57.72986    0.27022    80.00000

 Normal termination of Gaussian 16 at Wed Aug 14 20:37:55 2024.
 Gaussian 16:  ES64L-G16RevC.01  3-Jul-2019

 --------------------------------------------------------------------
 # M062X/def2tzvp int=(grid=ultrafine) nmr=giao guess=read geom=check
 --------------------------------------------------------------------

 ---------
 pyrz3.xyz
 ---------
 Structure from the checkpoint file:  "pyrz3_conf-1.chk"
 Charge =  0 Multiplicity = 1

                         Standard orientation:
 ---------------------------------------------------------------------
 Center     Atomic      Atomic             Coordinates (Angstroms)
 Number     Number       Type             X           Y           Z
 ---------------------------------------------------------------------
      1          6           0       -3.965157   -0.242287    0.000008
      2          6           0       -2.470231   -0.103143   -0.000008
      3          7           0       -1.964251    1.141118   -0.000006
      4          6           0       -0.634953    1.251630   -0.000000
      5          6           0        0.203740    0.130356    0.000001
      6          6           0        1.684345    0.347228    0.000006
      7          8           0        2.379957   -0.798815    0.000002
      8          6           0        3.807369   -0.637156    0.000001
      9          8           0        2.189482    1.453776   -0.000000
     10          7           0       -0.290557   -1.113892   -0.000002
     11          6           0       -1.618288   -1.219592   -0.000006
     12          1           0       -4.389955    0.250669   -0.879895
     13          1           0       -4.272869   -1.290399   -0.000148
     14          1           0       -4.389912    0.250380    0.880095
     15          1           0       -0.206355    2.248995   -0.000004
     16          1           0        4.131162   -0.089433   -0.888233
     17          1           0        4.214828   -1.647132    0.000025
     18          1           0        4.131160   -0.089389    0.888207
     19          1           0       -2.030864   -2.226168   -0.000010
 ---------------------------------------------------------------------

 SCF Done:  E(RM062X) =  -531.500797508     A.U. after    1 cycles

      1  C    Isotropic =   162.2300   Anisotropy =    37.4992

      2  C    Isotropic =     0.9057   Anisotropy =   223.9830

      3  N    Isotropic =  -172.5223   Anisotropy =   702.3186

      4  C    Isotropic =    13.7845   Anisotropy =   209.9087

      5  C    Isotropic =    21.0567   Anisotropy =   182.0843

      6  C    Isotropic =    -0.6426   Anisotropy =   105.6964

      7  O    Isotropic =   133.6997   Anisotropy =   176.9543

      8  C    Isotropic =   130.6206   Anisotropy =    71.2071

      9  O    Isotropic =  -138.7444   Anisotropy =   702.9023

     10  N    Isotropic =  -177.6629   Anisotropy =   718.9297

     11  C    Isotropic =    19.8278   Anisotropy =   174.5744

     12  H    Isotropic =    29.1329   Anisotropy =     7.3832

     13  H    Isotropic =    29.4071   Anisotropy =     6.9829

     14  H    Isotropic =    29.1330   Anisotropy =     7.3831

     15  H    Isotropic =    21.4356   Anisotropy =     9.8984

     16  H    Isotropic =    27.9630   Anisotropy =     7.7919

     17  H    Isotropic =    28.0710   Anisotropy =     7.1778

     18  H    Isotropic =    27.9630   Anisotropy =     7.7918

     19  H    Isotropic =    22.5289   Anisotropy =     9.1487

 The electronic state is 1-A.
 Alpha  occ. eigenvalues --  -19.67882 -19.62419 -14.78238 -14.77556 -10.68341
 Alpha  occ. eigenvalues --  -10.60867 -10.60331 -10.59777 -10.59517 -10.59505
 Alpha  occ. eigenvalues --  -10.55012  -1.24052  -1.14608  -1.10646  -1.02930
 Alpha  occ. eigenvalues --   -0.91272  -0.85230  -0.81168  -0.75943  -0.73323
 Alpha  occ. eigenvalues --   -0.66933  -0.62895  -0.60828  -0.57545  -0.56832
 Alpha  occ. eigenvalues --   -0.55592  -0.53584  -0.53036  -0.49404  -0.48997
 Alpha  occ. eigenvalues --   -0.47635  -0.46238  -0.45871  -0.43904  -0.39886
 Alpha  occ. eigenvalues --   -0.39783  -0.38294  -0.37459  -0.32978  -0.32334
 Alpha virt. eigenvalues --   -0.04286  -0.01697   0.07112   0.07602   0.08311
 Alpha virt. eigenvalues --    0.10269   0.10567   0.12555   0.13363   0.14073
 Alpha virt. eigenvalues --    0.14485   0.15719   0.15750   0.16759   0.18608

 Mulliken charges:
               1
     1  C   -0.440423
     2  C    0.185144
     3  N   -0.213238
     4  C   -0.067604
     5  C    0.074656
     6  C    0.349906
     7  O   -0.237209
     8  C   -0.261597
     9  O   -0.354449
    10  N   -0.184652
    11  C   -0.103787
    12  H    0.163416
    13  H    0.137869
    14  H    0.163415
    15  H    0.179220
    16  H    0.153810
    17  H    0.149619
    18  H    0.153811
    19  H    0.152094
 Sum of Mulliken charges =  -0.00000

 Dipole moment (field-independent basis, Debye):
    X=             -1.0782    Y=             -1.8730    Z=              0.0000  Tot=              2.1612
 Quadrupole moment (field-independent basis, Debye-Ang):
   XX=            -50.0298   YY=            -68.6180   ZZ=            -63.3790
   XY=              0.1961   XZ=             -0.0001   YZ=              0.0000

 Normal termination of Gaussian 16 at Wed Aug 14 20:39:04 2024.
