 Gaussian 16, Revision C.01,

 ----------------------------------------------------------------------
 # B3LYP/6-31G(d,p) symmetry=loose empiricaldispersion=GD3BJ int=(grid=
 ultrafine) opt freq=noraman
 ----------------------------------------------------------------------

 ---------
 pyrz3.xyz
 ---------
 Symbolic Z-matrix:
 Charge =  0 Multiplicity = 1

 SCF Done:  E(RB3LYP) =  -531.548730025     A.U. after   15 cycles
 SCF Done:  E(RB3LYP) =  -531.554384605     A.U. after   12 cycles
 SCF Done:  E(RB3LYP) =  -531.554905742     A.U. after   11 cycles
 SCF Done:  E(RB3LYP) =  -531.554938908     A.U. after    9 cycles
 SCF Done:  E(RB3LYP) =  -531.554941156     A.U. after    8 cycles
 SCF Done:  E(RB3LYP) =  -531.554940793     A.U. after    8 cycles
 SCF Done:  E(RB3LYP) =  -531.554940104     A.U. after    8 cycles
 SCF Done:  E(RB3LYP) =  -531.554941360     A.U. after    8 cycles
 Optimization completed.
    -- Stationary point found.
 Normal termination of Gaussian 16 at Wed Aug 14 20:36:49 2024.

 ----------------------------------------------------------------------
 #N Geom=AllCheck Guess=TCheck SCRF=Check GenChk RB3LYP/6-31G(d,p) Freq
 ----------------------------------------------------------------------

 Structure from the checkpoint file:  "pyrz3_conf-2.chk"
 ---------
 pyrz3.xyz
 ---------
 Charge =  0 Multiplicity = 1

 SCF Done:  E(RB3LYP) =  -531.554941360     A.U. after    1 cycles

                      1                      2                      3
                      A                      A                      A
 Frequencies --     40.8927                54.0328                78.5121
 Red. masses --      4.1754                 1.2000                 2.8475
 Frc consts  --      0.0041                 0.0021                 0.0103
 IR Inten    --      0.9557                 0.8292                 0.3690

                      4                      5                      6
                      A                      A                      A
 Frequencies --    124.6806               146.4151               154.9923
 Red. masses --      1.1474                 4.0927                 3.1597
 Frc consts  --      0.0105                 0.0517                 0.0447
 IR Inten    --      0.3316                 1.9804                 1.9256

                      7                      8                      9
                      A                      A                      A
 Frequencies --    302.2811               305.4007               341.9407
 Red. masses --      3.9025                 4.7571                 4.5967
 Frc consts  --      0.2101                 0.2614                 0.3167
 IR Inten    --      7.5173                 4.6319                 4.1863

                     10                     11                     12
                      A                      A                      A
 Frequencies --    367.1422               415.4628               483.0565
 Red. masses --      4.2794                 3.7277                 6.3836
 Frc consts  --      0.3399                 0.3791                 0.8776
 IR Inten    --      5.3194                13.4002                 2.2546

                     13                     14                     15
                      A                      A                      A
 Frequencies --    491.2157               632.6888               661.1336
 Red. masses --      4.1360                 6.2881                 7.7813
 Frc consts  --      0.5880                 1.4830                 2.0039
 IR Inten    --      5.2959                 0.3984                 0.5252

                     16                     17                     18
                      A                      A                      A
 Frequencies --    730.4785               797.8783               812.2648
 Red. masses --      5.9786                 4.3958                 5.2848
 Frc consts  --      1.8796                 1.6488                 2.0544
 IR Inten    --      8.5570                 3.4011                16.4029

                     19                     20                     21
                      A                      A                      A
 Frequencies --    876.5470               925.3671               971.8574
 Red. masses --      6.2717                 1.4880                 1.3424
 Frc consts  --      2.8391                 0.7507                 0.7470
 IR Inten    --      4.0076                 2.1478                 0.2953

                     22                     23                     24
                      A                      A                      A
 Frequencies --   1010.1066              1017.0827              1056.5878
 Red. masses --      2.7254                 2.2763                 3.5607
 Frc consts  --      1.6384                 1.3874                 2.3420
 IR Inten    --      4.1081                 3.5457                35.3656

                     25                     26                     27
                      A                      A                      A
 Frequencies --   1063.7229              1167.1026              1180.1489
 Red. masses --      1.6310                 3.4472                 1.2764
 Frc consts  --      1.0874                 2.7666                 1.0474
 IR Inten    --      7.1048               176.9167                 0.8483

                     28                     29                     30
                      A                      A                      A
 Frequencies --   1219.7020              1259.6326              1273.7597
 Red. masses --      1.7641                 8.1322                 3.1390
 Frc consts  --      1.5463                 7.6023                 3.0006
 IR Inten    --     85.6598                59.6521                52.7118

                     31                     32                     33
                      A                      A                      A
 Frequencies --   1310.9132              1345.0724              1365.9327
 Red. masses --      2.0890                 1.7139                 5.8730
 Frc consts  --      2.1152                 1.8270                 6.4561
 IR Inten    --    213.4948                36.5387                90.6983

                     34                     35                     36
                      A                      A                      A
 Frequencies --   1424.2438              1480.5881              1488.2862
 Red. masses --      1.2799                 1.1989                 1.0445
 Frc consts  --      1.5296                 1.5484                 1.3631
 IR Inten    --      3.8502                15.6028                 6.1016

                     37                     38                     39
                      A                      A                      A
 Frequencies --   1495.1944              1498.4261              1510.0502
 Red. masses --      1.0463                 1.1171                 1.0515
 Frc consts  --      1.3782                 1.4778                 1.4127
 IR Inten    --      6.3943                12.4378                 8.7575

                     40                     41                     42
                      A                      A                      A
 Frequencies --   1524.9572              1588.1858              1623.9198
 Red. masses --      2.6968                 8.8614                 5.6010
 Frc consts  --      3.6951                13.1690                 8.7025
 IR Inten    --      7.0874                18.7750                24.2873

                     43                     44                     45
                      A                      A                      A
 Frequencies --   1834.1954              3055.6010              3066.7568
 Red. masses --     12.0086                 1.0360                 1.0297
 Frc consts  --     23.8031                 5.6991                 5.7060
 IR Inten    --    217.2237                10.1772                34.8387

                     46                     47                     48
                      A                      A                      A
 Frequencies --   3119.8032              3143.8957              3144.5013
 Red. masses --      1.1008                 1.1033                 1.1070
 Frc consts  --      6.3127                 6.4250                 6.4491
 IR Inten    --      7.8242                10.0410                19.0117

                     49                     50                     51
                      A                      A                      A
 Frequencies --   3170.8412              3178.5437              3212.2272
 Red. masses --      1.0917                 1.1072                 1.0921
 Frc consts  --      6.4672                 6.5906                 6.6393
 IR Inten    --     27.5257                14.9711                 5.7060

 - Thermochemistry -
 -------------------
 Temperature   298.150 Kelvin.  Pressure   1.00000 Atm.
 Atom     1 has atomic number  6 and mass  12.00000

 Molecular mass:   152.05858 amu.
 Principal axes and moments of inertia in atomic units:
                                 1                 2                 3
     Eigenvalues --          518.542848       3001.224612       3497.260139
           X                   0.999913          0.013208          0.000001
           Y                  -0.013208          0.999913         -0.000000
           Z                  -0.000001          0.000000          1.000000
 This molecule is an asymmetric top.
 Rotational symmetry number  1.
 Warning -- assumption of classical behavior for rotation
           may cause significant error
 Rotational temperatures (Kelvin)      0.16703     0.02886     0.02477
 Rotational constants (GHZ):           3.48041     0.60133     0.51604
 Zero-point vibrational energy     386060.2 (Joules/Mol)
                                   92.27060 (Kcal/Mol)
 Warning -- explicit consideration of  13 degrees of freedom as
           vibrations may cause significant error
 Vibrational temperatures:     58.84    77.74   112.96   179.39   210.66
          (Kelvin)            223.00   434.92   439.40   491.98   528.24
                              597.76   695.01   706.75   910.30   951.22
                             1051.00  1147.97  1168.67  1261.16  1331.40
                             1398.29  1453.32  1463.36  1520.19  1530.46
                             1679.20  1697.97  1754.88  1812.33  1832.66
                             1886.11  1935.26  1965.27  2049.17  2130.24
                             2141.31  2151.25  2155.90  2172.63  2194.07
                             2285.05  2336.46  2639.00  4396.33  4412.38
                             4488.70  4523.36  4524.24  4562.13  4573.22
                             4621.68

 Zero-point correction=                           0.147043 (Hartree/Particle)
 Thermal correction to Energy=                    0.157566
 Thermal correction to Enthalpy=                  0.158510
 Thermal correction to Gibbs Free Energy=         0.109530
 Sum of electronic and zero-point Energies=           -531.407899
 Sum of electronic and thermal Energies=              -531.397375
 Sum of electronic and thermal Enthalpies=            -531.396431
 Sum of electronic and thermal Free Energies=         -531.445412

                     E (Thermal)             CV                S
                      KCal/Mol        Cal/Mol-Kelvin    Cal/Mol-Kelvin
 Total                   98.874             36.795            103.089
 Electronic               0.000              0.000              0.000
 Translational            0.889              2.981             40.967
 Rotational               0.889              2.981             30.077
 Vibrational             97.097             30.833             32.044
 Vibration     1          0.594              1.981              5.215
 Vibration     2          0.596              1.976              4.664
 Vibration     3          0.600              1.964              3.928
 Vibration     4          0.610              1.928              3.027
 Vibration     5          0.617              1.907              2.718
 Vibration     6          0.620              1.897              2.610
 Vibration     7          0.694              1.669              1.404
 Vibration     8          0.696              1.663              1.387
 Vibration     9          0.721              1.592              1.203
 Vibration    10          0.740              1.540              1.092
 Vibration    11          0.779              1.437              0.908
 Vibration    12          0.839              1.288              0.702
 Vibration    13          0.847              1.270              0.680

 Optimization completed.
    -- Stationary point found.
 Normal termination of Gaussian 16 at Wed Aug 14 20:37:44 2024.

 ----------------------------------------------------------------------
 # M062X/def2tzvp int=(grid=ultrafine) pop=nbo7 polar prop=efg volume g
 uess=read geom=check
 ----------------------------------------------------------------------

 ---------
 pyrz3.xyz
 ---------
 Structure from the checkpoint file:  "pyrz3_conf-2.chk"
 Charge =  0 Multiplicity = 1

 SCF Done:  E(RM062X) =  -531.499017755     A.U. after   12 cycles

  Exact polarizability:     147.444       0.985      97.665      -0.000      -0.001      61.200
 Approx polarizability:     154.973      -1.723     138.592      -0.001      -0.001      82.074

 Summary of Natural Population Analysis:

                                     Natural Population
             Natural    ---------------------------------------------
  Atom No    Charge        Core      Valence    Rydberg      Total
 --------------------------------------------------------------------
    C  1   -0.64365      1.99999     4.63351    0.01014     6.64365
    C  2    0.19148      1.99999     3.78860    0.01993     5.80852
    N  3   -0.39506      1.99999     5.36165    0.03342     7.39506
    C  4    0.04192      1.99999     3.93658    0.02150     5.95808
    C  5    0.01430      1.99999     3.96287    0.02284     5.98570
    C  6    0.75492      1.99999     3.20951    0.03558     5.24508
    O  7   -0.50306      2.00000     6.48211    0.02095     8.50306
    C  8   -0.26203      1.99999     4.24686    0.01518     6.26203
    O  9   -0.55558      2.00000     6.53002    0.02556     8.55558
    N 10   -0.32417      1.99999     5.29167    0.03251     7.32417
    C 11   -0.00871      1.99999     3.98702    0.02169     6.00871
    H 12    0.23614      0.00000     0.76260    0.00125     0.76386
    H 13    0.21684      0.00000     0.78217    0.00099     0.78316
    H 14    0.23614      0.00000     0.76261    0.00125     0.76386
    H 15    0.21961      0.00000     0.77905    0.00134     0.78039
    H 16    0.19352      0.00000     0.80492    0.00156     0.80648
    H 17    0.19358      0.00000     0.80526    0.00116     0.80642
    H 18    0.19352      0.00000     0.80492    0.00156     0.80648
    H 19    0.20027      0.00000     0.79827    0.00145     0.79973
 ====================================================================
 * Total *  0.00000     21.99992    57.73021    0.26987    80.00000

 Normal termination of Gaussian 16 at Wed Aug 14 20:40:43 2024.
 Gaussian 16:  ES64L-G16RevC.01  3-Jul-2019

 --------------------------------------------------------------------
 # M062X/def2tzvp int=(grid=ultrafine) nmr=giao guess=read geom=check
 --------------------------------------------------------------------

 ---------
 pyrz3.xyz
 ---------
 Structure from the checkpoint file:  "pyrz3_conf-2.chk"
 Charge =  0 Multiplicity = 1

                         Standard orientation:
 ---------------------------------------------------------------------
 Center     Atomic      Atomic             Coordinates (Angstroms)
 Number     Number       Type             X           Y           Z
 ---------------------------------------------------------------------
      1          6           0        3.955037   -0.312013   -0.000048
      2          6           0        2.464206   -0.134441   -0.000019
      3          7           0        1.707461   -1.242587    0.000023
      4          6           0        0.383175   -1.072016    0.000058
      5          6           0       -0.203015    0.200046    0.000054
      6          6           0       -1.689187    0.400633    0.000105
      7          8           0       -2.337530   -0.788658    0.000009
      8          6           0       -3.770764   -0.694025   -0.000091
      9          8           0       -2.248182    1.472109    0.000000
     10          7           0        0.546110    1.310667    0.000006
     11          6           0        1.864713    1.136358   -0.000028
     12          1           0        4.267373   -0.882757   -0.880040
     13          1           0        4.475212    0.648498   -0.000218
     14          1           0        4.267441   -0.882468    0.880110
     15          1           0       -0.233258   -1.964759    0.000095
     16          1           0       -4.118535   -0.161528    0.888124
     17          1           0       -4.133156   -1.721212   -0.000188
     18          1           0       -4.118405   -0.161406   -0.888285
     19          1           0        2.479043    2.034222   -0.000067
 ---------------------------------------------------------------------

 SCF Done:  E(RM062X) =  -531.499017755     A.U. after    1 cycles

      1  C    Isotropic =   162.3250   Anisotropy =    37.6448

      2  C    Isotropic =     1.6090   Anisotropy =   222.3684

      3  N    Isotropic =  -170.2931   Anisotropy =   696.7309

      4  C    Isotropic =    15.1820   Anisotropy =   202.9923

      5  C    Isotropic =    20.5719   Anisotropy =   181.7961

      6  C    Isotropic =     3.9697   Anisotropy =    93.5569

      7  O    Isotropic =   138.1164   Anisotropy =   177.7986

      8  C    Isotropic =   130.9893   Anisotropy =    70.6562

      9  O    Isotropic =  -163.3093   Anisotropy =   749.5941

     10  N    Isotropic =  -189.4702   Anisotropy =   736.2739

     11  C    Isotropic =    18.4009   Anisotropy =   177.4439

     12  H    Isotropic =    29.1283   Anisotropy =     7.3373

     13  H    Isotropic =    29.3898   Anisotropy =     7.1109

     14  H    Isotropic =    29.1284   Anisotropy =     7.3372

     15  H    Isotropic =    21.6618   Anisotropy =    10.6832

     16  H    Isotropic =    27.9276   Anisotropy =     7.8333

     17  H    Isotropic =    28.1265   Anisotropy =     7.1815

     18  H    Isotropic =    27.9274   Anisotropy =     7.8329

     19  H    Isotropic =    22.3704   Anisotropy =     9.0501

 The electronic state is 1-A.
 Alpha  occ. eigenvalues --  -19.68133 -19.62321 -14.78089 -14.77634 -10.68204
 Alpha  occ. eigenvalues --  -10.60897 -10.60416 -10.60000 -10.59778 -10.59485
 Alpha  occ. eigenvalues --  -10.55043  -1.23999  -1.14687  -1.10632  -1.02878
 Alpha  occ. eigenvalues --   -0.91463  -0.85512  -0.80936  -0.75903  -0.73369
 Alpha  occ. eigenvalues --   -0.66978  -0.63080  -0.61094  -0.57641  -0.56474
 Alpha  occ. eigenvalues --   -0.55694  -0.53952  -0.53085  -0.49319  -0.49058
 Alpha  occ. eigenvalues --   -0.47602  -0.46256  -0.46084  -0.44342  -0.39907
 Alpha  occ. eigenvalues --   -0.39885  -0.38430  -0.36773  -0.33085  -0.32533
 Alpha virt. eigenvalues --   -0.04275  -0.01707   0.07076   0.07670   0.07896
 Alpha virt. eigenvalues --    0.10383   0.10507   0.11874   0.12411   0.14464
 Alpha virt. eigenvalues --    0.14724   0.15543   0.15549   0.16788   0.18530

 Mulliken charges:
               1
     1  C   -0.441491
     2  C    0.184727
     3  N   -0.212170
     4  C   -0.064921
     5  C    0.058199
     6  C    0.340628
     7  O   -0.280256
     8  C   -0.254952
     9  O   -0.305770
    10  N   -0.172252
    11  C   -0.095541
    12  H    0.163112
    13  H    0.138988
    14  H    0.163111
    15  H    0.167425
    16  H    0.156151
    17  H    0.145964
    18  H    0.156153
    19  H    0.152896
 Sum of Mulliken charges =  -0.00000

 Dipole moment (field-independent basis, Debye):
    X=              1.1567    Y=             -1.9290    Z=              0.0000  Tot=              2.2492
 Quadrupole moment (field-independent basis, Debye-Ang):
   XX=            -48.0566   YY=            -70.8793   ZZ=            -63.3837
   XY=             10.6026   XZ=             -0.0000   YZ=              0.0001

 Normal termination of Gaussian 16 at Wed Aug 14 20:41:53 2024.
