 Gaussian 16, Revision C.01,

 ----------------------------------------------------------------------
 # B3LYP/6-31G(d,p) symmetry=loose empiricaldispersion=GD3BJ int=(grid=
 ultrafine) opt freq=noraman
 ----------------------------------------------------------------------

 ----------
 pyrd10.xyz
 ----------
 Symbolic Z-matrix:
 Charge =  0 Multiplicity = 1

 SCF Done:  E(RB3LYP) =  -2937.38581216     A.U. after   14 cycles
 SCF Done:  E(RB3LYP) =  -2937.38803805     A.U. after   11 cycles
 SCF Done:  E(RB3LYP) =  -2937.38822008     A.U. after   11 cycles
 SCF Done:  E(RB3LYP) =  -2937.38822846     A.U. after   10 cycles
 SCF Done:  E(RB3LYP) =  -2937.38823653     A.U. after    9 cycles
 SCF Done:  E(RB3LYP) =  -2937.38823705     A.U. after    8 cycles
 SCF Done:  E(RB3LYP) =  -2937.38823713     A.U. after    7 cycles
 SCF Done:  E(RB3LYP) =  -2937.38823717     A.U. after    7 cycles
 SCF Done:  E(RB3LYP) =  -2937.38823720     A.U. after    7 cycles
 Optimization completed.
    -- Stationary point found.
 Normal termination of Gaussian 16 at Wed Aug 14 18:48:04 2024.

 ----------------------------------------------------------------------
 #N Geom=AllCheck Guess=TCheck SCRF=Check GenChk RB3LYP/6-31G(d,p) Freq
 ----------------------------------------------------------------------

 Structure from the checkpoint file:  "pyrd10_conf-4.chk"
 ----------
 pyrd10.xyz
 ----------
 Charge =  0 Multiplicity = 1

 SCF Done:  E(RB3LYP) =  -2937.38823720     A.U. after    1 cycles

                      1                      2                      3
                      A                      A                      A
 Frequencies --     29.8543                34.1586                97.1671
 Red. masses --      4.6037                 4.8105                 3.5894
 Frc consts  --      0.0024                 0.0033                 0.0200
 IR Inten    --      3.1618                 1.9655                 0.1827

                      4                      5                      6
                      A                      A                      A
 Frequencies --    111.4676               228.4448               275.3863
 Red. masses --      5.9246                 2.0705                 3.2802
 Frc consts  --      0.0434                 0.0637                 0.1466
 IR Inten    --      0.4295                 0.5397                 0.6543

                      7                      8                      9
                      A                      A                      A
 Frequencies --    338.8216               377.1598               413.7954
 Red. masses --      2.3819                 3.6790                 3.2529
 Frc consts  --      0.1611                 0.3083                 0.3282
 IR Inten    --      0.2911                 2.7398                 2.7013

                     10                     11                     12
                      A                      A                      A
 Frequencies --    507.6217               561.9527               615.4058
 Red. masses --      4.0108                 3.6966                 5.3350
 Frc consts  --      0.6089                 0.6878                 1.1904
 IR Inten    --      0.8906                16.3342                 2.5335

                     13                     14                     15
                      A                      A                      A
 Frequencies --    652.4577               733.8771               769.8746
 Red. masses --      5.8381                 2.0432                 1.3683
 Frc consts  --      1.4643                 0.6483                 0.4778
 IR Inten    --      2.2827                19.7324                 6.8393

                     16                     17                     18
                      A                      A                      A
 Frequencies --    809.1201               836.3251               867.0299
 Red. masses --      1.8388                 1.7134                 2.7021
 Frc consts  --      0.7093                 0.7061                 1.1968
 IR Inten    --     13.0907                 2.2159                 3.1288

                     19                     20                     21
                      A                      A                      A
 Frequencies --    946.2762               962.9793               986.2495
 Red. masses --      1.3550                 1.4941                 1.8442
 Frc consts  --      0.7149                 0.8163                 1.0569
 IR Inten    --      0.6737                 2.5908                 9.6856

                     22                     23                     24
                      A                      A                      A
 Frequencies --    997.9662              1018.1661              1045.3838
 Red. masses --      1.3643                 1.6843                 3.9227
 Frc consts  --      0.8006                 1.0288                 2.5257
 IR Inten    --      0.1298                 1.2288                10.2623

                     25                     26                     27
                      A                      A                      A
 Frequencies --   1070.3199              1075.1439              1131.7759
 Red. masses --      2.4802                 2.4871                 1.3416
 Frc consts  --      1.6740                 1.6938                 1.0125
 IR Inten    --      1.9616                 0.3137                 2.2079

                     28                     29                     30
                      A                      A                      A
 Frequencies --   1157.6382              1205.2813              1229.2368
 Red. masses --      1.2554                 1.3513                 1.6442
 Frc consts  --      0.9912                 1.1566                 1.4638
 IR Inten    --      2.7667                 9.4442                 3.3187

                     31                     32                     33
                      A                      A                      A
 Frequencies --   1253.3595              1276.1412              1311.3754
 Red. masses --      1.7136                 1.3545                 2.4095
 Frc consts  --      1.5860                 1.2997                 2.4414
 IR Inten    --      2.3662                41.5913                12.1616

                     34                     35                     36
                      A                      A                      A
 Frequencies --   1323.4983              1339.7175              1378.4945
 Red. masses --      1.8013                 1.2334                 1.2072
 Frc consts  --      1.8590                 1.3044                 1.3516
 IR Inten    --      3.3715                10.3452                 1.7974

                     37                     38                     39
                      A                      A                      A
 Frequencies --   1401.8655              1470.3939              1484.5267
 Red. masses --      1.5240                 2.3129                 1.0839
 Frc consts  --      1.7646                 2.9463                 1.4074
 IR Inten    --      2.3804                20.7146                 4.7729

                     40                     41                     42
                      A                      A                      A
 Frequencies --   1493.0156              1511.8756              1523.4861
 Red. masses --      1.1113                 1.1041                 2.2757
 Frc consts  --      1.4595                 1.4870                 3.1120
 IR Inten    --      0.1923                 3.5451                15.0385

                     43                     44                     45
                      A                      A                      A
 Frequencies --   1629.6696              1651.5470              3032.3045
 Red. masses --      5.2735                 5.8219                 1.0647
 Frc consts  --      8.2518                 9.3561                 5.7679
 IR Inten    --     12.0120                 1.4801                11.2121

                     46                     47                     48
                      A                      A                      A
 Frequencies --   3047.0421              3085.2944              3102.6632
 Red. masses --      1.0637                 1.0934                 1.0970
 Frc consts  --      5.8189                 6.1325                 6.2221
 IR Inten    --     21.5616                 3.7518                 6.4331

                     49                     50                     51
                      A                      A                      A
 Frequencies --   3111.7982              3145.0216              3167.0103
 Red. masses --      1.0646                 1.0897                 1.0891
 Frc consts  --      6.0738                 6.3505                 6.4363
 IR Inten    --     24.3796                32.0736                15.6918

                     52                     53                     54
                      A                      A                      A
 Frequencies --   3178.3433              3178.6982              3207.1568
 Red. masses --      1.0924                 1.1091                 1.0964
 Frc consts  --      6.5016                 6.6025                 6.6444
 IR Inten    --     12.2625                 8.2324                17.6641

 - Thermochemistry -
 -------------------
 Temperature   298.150 Kelvin.  Pressure   1.00000 Atm.
 Atom     1 has atomic number 35 and mass  78.91834

 Molecular mass:   198.99966 amu.
 Principal axes and moments of inertia in atomic units:
                                 1                 2                 3
     Eigenvalues --          577.095777       5725.954043       6082.591589
           X                   0.999831          0.018153          0.002811
           Y                  -0.018123          0.999782         -0.010387
           Z                  -0.002999          0.010334          0.999942
 This molecule is an asymmetric top.
 Rotational symmetry number  1.
 Warning -- assumption of classical behavior for rotation
           may cause significant error
 Rotational temperatures (Kelvin)      0.15009     0.01513     0.01424
 Rotational constants (GHZ):           3.12728     0.31519     0.29671
 Zero-point vibrational energy     432992.2 (Joules/Mol)
                                  103.48761 (Kcal/Mol)
 Warning -- explicit consideration of  12 degrees of freedom as
           vibrations may cause significant error
 Vibrational temperatures:     42.95    49.15   139.80   160.38   328.68
          (Kelvin)            396.22   487.49   542.65   595.36   730.35
                              808.52   885.43   938.74  1055.89  1107.68
                             1164.14  1203.29  1247.46  1361.48  1385.51
                             1418.99  1435.85  1464.91  1504.07  1539.95
                             1546.89  1628.37  1665.58  1734.13  1768.60
                             1803.30  1836.08  1886.78  1904.22  1927.55
                             1983.35  2016.97  2115.57  2135.90  2148.12
                             2175.25  2191.96  2344.73  2376.21  4362.81
                             4384.01  4439.05  4464.04  4477.18  4524.98
                             4556.62  4572.93  4573.44  4614.38

 Zero-point correction=                           0.164918 (Hartree/Particle)
 Thermal correction to Energy=                    0.174460
 Thermal correction to Enthalpy=                  0.175404
 Thermal correction to Gibbs Free Energy=         0.126900
 Sum of electronic and zero-point Energies=          -2937.223319
 Sum of electronic and thermal Energies=             -2937.213777
 Sum of electronic and thermal Enthalpies=           -2937.212833
 Sum of electronic and thermal Free Energies=        -2937.261338

                     E (Thermal)             CV                S
                      KCal/Mol        Cal/Mol-Kelvin    Cal/Mol-Kelvin
 Total                  109.475             34.641            102.086
 Electronic               0.000              0.000              0.000
 Translational            0.889              2.981             41.769
 Rotational               0.889              2.981             31.375
 Vibrational            107.698             28.679             28.942
 Vibration     1          0.594              1.984              5.839
 Vibration     2          0.594              1.983              5.572
 Vibration     3          0.603              1.951              3.510
 Vibration     4          0.607              1.940              3.243
 Vibration     5          0.651              1.798              1.891
 Vibration     6          0.677              1.719              1.562
 Vibration     7          0.719              1.598              1.218
 Vibration     8          0.748              1.519              1.051
 Vibration     9          0.777              1.440              0.913
 Vibration    10          0.863              1.233              0.639
 Vibration    11          0.918              1.114              0.520
 Vibration    12          0.975              0.999              0.424

 Optimization completed.
    -- Stationary point found.
 Normal termination of Gaussian 16 at Wed Aug 14 18:49:41 2024.

 ----------------------------------------------------------------------
 # M062X/def2tzvp int=(grid=ultrafine) pop=nbo7 polar prop=efg volume g
 uess=read geom=check
 ----------------------------------------------------------------------

 ----------
 pyrd10.xyz
 ----------
 Structure from the checkpoint file:  "pyrd10_conf-4.chk"
 Charge =  0 Multiplicity = 1

 SCF Done:  E(RM062X) =  -2939.78921463     A.U. after   11 cycles

  Exact polarizability:     152.954      -0.311     115.238      -6.291      -3.010      81.649
 Approx polarizability:     167.712      -6.001     162.518     -10.045      -5.253     112.528

 Summary of Natural Population Analysis:

                                     Natural Population
             Natural    ---------------------------------------------
  Atom No    Charge        Core      Valence    Rydberg      Total
 --------------------------------------------------------------------
   Br  1   -0.05817     27.99997     7.04792    0.01028    35.05817
    C  2   -0.38918      1.99999     4.37070    0.01848     6.38918
    C  3   -0.41676      1.99999     4.40296    0.01380     6.41676
    C  4   -0.42659      1.99999     4.41248    0.01411     6.42659
    C  5   -0.05856      1.99999     4.04142    0.01715     6.05856
    C  6    0.03011      1.99999     3.94774    0.02215     5.96989
    N  7   -0.41000      1.99999     5.37813    0.03188     7.41000
    C  8    0.02277      1.99999     3.95488    0.02236     5.97723
    C  9   -0.25013      1.99999     4.23397    0.01617     6.25013
    C 10   -0.17611      1.99999     4.15946    0.01666     6.17611
    H 11    0.22406      0.00000     0.77437    0.00157     0.77594
    H 12    0.21482      0.00000     0.78319    0.00198     0.78518
    H 13    0.21441      0.00000     0.78351    0.00208     0.78559
    H 14    0.21862      0.00000     0.77981    0.00157     0.78138
    H 15    0.22820      0.00000     0.76954    0.00226     0.77180
    H 16    0.21145      0.00000     0.78666    0.00188     0.78855
    H 17    0.18834      0.00000     0.81004    0.00162     0.81166
    H 18    0.19474      0.00000     0.80386    0.00141     0.80526
    H 19    0.22117      0.00000     0.77770    0.00113     0.77883
    H 20    0.21679      0.00000     0.78169    0.00152     0.78321
 ====================================================================
 * Total *  0.00000     45.99990    53.80004    0.20006   100.00000

 Normal termination of Gaussian 16 at Wed Aug 14 18:54:19 2024.
 Gaussian 16:  ES64L-G16RevC.01  3-Jul-2019

 --------------------------------------------------------------------
 # M062X/def2tzvp int=(grid=ultrafine) nmr=giao guess=read geom=check
 --------------------------------------------------------------------

 ----------
 pyrd10.xyz
 ----------
 Structure from the checkpoint file:  "pyrd10_conf-4.chk"
 Charge =  0 Multiplicity = 1

                         Standard orientation:
 ---------------------------------------------------------------------
 Center     Atomic      Atomic             Coordinates (Angstroms)
 Number     Number       Type             X           Y           Z
 ---------------------------------------------------------------------
      1         35           0        3.015344   -0.396807   -0.138670
      2          6           0        1.998104    1.145485    0.586531
      3          6           0        0.529991    0.806502    0.772154
      4          6           0       -0.209624    0.509082   -0.542446
      5          6           0       -1.653437    0.147385   -0.308672
      6          6           0       -2.669144    1.105949   -0.402617
      7          7           0       -3.963963    0.865745   -0.169967
      8          6           0       -4.301738   -0.382072    0.176267
      9          6           0       -3.378093   -1.420710    0.298733
     10          6           0       -2.035381   -1.148227    0.052616
     11          1           0        2.490446    1.388837    1.526801
     12          1           0        2.156012    1.949446   -0.132759
     13          1           0        0.435452   -0.047272    1.451511
     14          1           0        0.053331    1.661224    1.271597
     15          1           0        0.306139   -0.308971   -1.055402
     16          1           0       -0.146081    1.386215   -1.197509
     17          1           0       -2.416762    2.126912   -0.688788
     18          1           0       -5.359060   -0.560052    0.361404
     19          1           0       -3.706671   -2.416993    0.576390
     20          1           0       -1.286169   -1.931663    0.134575
 ---------------------------------------------------------------------

 SCF Done:  E(RM062X) =  -2939.78921463     A.U. after    1 cycles

      1  Br   Isotropic =  2375.2438   Anisotropy =   919.2865

      2  C    Isotropic =   136.3152   Anisotropy =    44.9369

      3  C    Isotropic =   143.4924   Anisotropy =    32.7678

      4  C    Isotropic =   150.1875   Anisotropy =    32.6981

      5  C    Isotropic =    25.0232   Anisotropy =   227.0859

      6  C    Isotropic =    10.2697   Anisotropy =   184.5296

      7  N    Isotropic =  -155.3274   Anisotropy =   678.1687

      8  C    Isotropic =    12.7871   Anisotropy =   205.8478

      9  C    Isotropic =    41.8104   Anisotropy =   203.9025

     10  C    Isotropic =    26.4253   Anisotropy =   220.7342

     11  H    Isotropic =    28.1809   Anisotropy =    11.1459

     12  H    Isotropic =    28.4641   Anisotropy =    11.0485

     13  H    Isotropic =    30.1924   Anisotropy =     5.0530

     14  H    Isotropic =    29.9595   Anisotropy =     7.7086

     15  H    Isotropic =    28.4933   Anisotropy =     6.5100

     16  H    Isotropic =    29.4785   Anisotropy =     7.5893

     17  H    Isotropic =    22.3976   Anisotropy =    10.7207

     18  H    Isotropic =    22.4517   Anisotropy =     7.0560

     19  H    Isotropic =    23.9525   Anisotropy =     7.1188

     20  H    Isotropic =    23.5586   Anisotropy =    10.6729

 The electronic state is 1-A.
 Alpha  occ. eigenvalues -- -485.36481 -63.34984 -57.16924 -57.16691 -57.16687
 Alpha  occ. eigenvalues --  -14.75118 -10.60484 -10.57747 -10.57715 -10.56306
 Alpha  occ. eigenvalues --  -10.56192 -10.56077 -10.55443 -10.55369  -9.01618
 Alpha  occ. eigenvalues --   -6.84007  -6.83156  -6.83142  -2.87374  -2.87072
 Alpha  occ. eigenvalues --   -2.87059  -2.86264  -2.86264  -1.05354  -0.94308
 Alpha  occ. eigenvalues --   -0.91077  -0.87805  -0.83768  -0.77715  -0.71979
 Alpha  occ. eigenvalues --   -0.70530  -0.67670  -0.60195  -0.57261  -0.55080
 Alpha  occ. eigenvalues --   -0.53913  -0.52098  -0.50247  -0.47760  -0.47349
 Alpha  occ. eigenvalues --   -0.46022  -0.45368  -0.43123  -0.41611  -0.40486
 Alpha  occ. eigenvalues --   -0.34799  -0.34170  -0.33982  -0.32629  -0.31210
 Alpha virt. eigenvalues --   -0.00210   0.01192   0.02589   0.06360   0.07963
 Alpha virt. eigenvalues --    0.08848   0.10235   0.10386   0.12102   0.13053
 Alpha virt. eigenvalues --    0.13383   0.14103   0.14764   0.15755   0.16532

 Mulliken charges:
               1
     1  Br  -0.162426
     2  C   -0.209992
     3  C   -0.275596
     4  C   -0.438558
     5  C    0.125291
     6  C   -0.085931
     7  N   -0.220809
     8  C   -0.055738
     9  C   -0.150971
    10  C   -0.149153
    11  H    0.175598
    12  H    0.169320
    13  H    0.172569
    14  H    0.157890
    15  H    0.190829
    16  H    0.163097
    17  H    0.142953
    18  H    0.144217
    19  H    0.142825
    20  H    0.164585
 Sum of Mulliken charges =  -0.00000

 Dipole moment (field-independent basis, Debye):
    X=              0.5908    Y=             -0.0167    Z=              0.9744  Tot=              1.1396
 Quadrupole moment (field-independent basis, Debye-Ang):
   XX=            -85.8608   YY=            -68.0623   ZZ=            -73.9659
   XY=             10.9149   XZ=             -0.6204   YZ=             -0.2023

 Normal termination of Gaussian 16 at Wed Aug 14 18:56:03 2024.
