 Gaussian 16, Revision C.01,

 ----------------------------------------------------------------------
 # B3LYP/6-31G(d,p) symmetry=loose empiricaldispersion=GD3BJ int=(grid=
 ultrafine) opt freq=noraman
 ----------------------------------------------------------------------

 ---------
 pyrd8.xyz
 ---------
 Symbolic Z-matrix:
 Charge =  0 Multiplicity = 1

 SCF Done:  E(RB3LYP) =  -3426.62052926     A.U. after   15 cycles
 SCF Done:  E(RB3LYP) =  -3426.62704140     A.U. after   13 cycles
 SCF Done:  E(RB3LYP) =  -3426.62776996     A.U. after   12 cycles
 SCF Done:  E(RB3LYP) =  -3426.62783255     A.U. after   10 cycles
 SCF Done:  E(RB3LYP) =  -3426.62783926     A.U. after    9 cycles
 SCF Done:  E(RB3LYP) =  -3426.62784050     A.U. after    8 cycles
 SCF Done:  E(RB3LYP) =  -3426.62784095     A.U. after    7 cycles
 SCF Done:  E(RB3LYP) =  -3426.62784131     A.U. after    7 cycles
 SCF Done:  E(RB3LYP) =  -3426.62784187     A.U. after    8 cycles
 SCF Done:  E(RB3LYP) =  -3426.62784288     A.U. after    9 cycles
 SCF Done:  E(RB3LYP) =  -3426.62785408     A.U. after    9 cycles
 SCF Done:  E(RB3LYP) =  -3426.62785419     A.U. after    8 cycles
 SCF Done:  E(RB3LYP) =  -3426.62785422     A.U. after    7 cycles
 SCF Done:  E(RB3LYP) =  -3426.62785427     A.U. after    8 cycles
 SCF Done:  E(RB3LYP) =  -3426.62785429     A.U. after    8 cycles
 SCF Done:  E(RB3LYP) =  -3426.62785429     A.U. after    7 cycles
 SCF Done:  E(RB3LYP) =  -3426.62785429     A.U. after    6 cycles
 Optimization completed.
    -- Stationary point found.
 Normal termination of Gaussian 16 at Wed Aug 14 19:44:53 2024.

 ----------------------------------------------------------------------
 #N Geom=AllCheck Guess=TCheck SCRF=Check GenChk RB3LYP/6-31G(d,p) Freq
 ----------------------------------------------------------------------

 Structure from the checkpoint file:  "pyrd8_conf-2.chk"
 ---------
 pyrd8.xyz
 ---------
 Charge =  0 Multiplicity = 1

 SCF Done:  E(RB3LYP) =  -3426.62785429     A.U. after    1 cycles

                      1                      2                      3
                      A                      A                      A
 Frequencies --     10.5020                33.1751                86.7428
 Red. masses --      1.0246                 8.5405                 5.7686
 Frc consts  --      0.0001                 0.0055                 0.0256
 IR Inten    --      0.2599                 0.0049                 0.6693

                      4                      5                      6
                      A                      A                      A
 Frequencies --     92.1530               153.7520               181.9872
 Red. masses --      8.6697                 4.6608                 5.7762
 Frc consts  --      0.0434                 0.0649                 0.1127
 IR Inten    --      0.0317                 0.1233                 0.0495

                      7                      8                      9
                      A                      A                      A
 Frequencies --    213.7018               246.2732               260.7226
 Red. masses --      3.6985                 7.7887                 5.5435
 Frc consts  --      0.0995                 0.2783                 0.2220
 IR Inten    --      0.1658                 4.1997                 1.1277

                     10                     11                     12
                      A                      A                      A
 Frequencies --    323.4432               363.6286               479.5382
 Red. masses --      6.2429                 6.2208                 4.8356
 Frc consts  --      0.3848                 0.4846                 0.6552
 IR Inten    --      0.4886                 1.8455                 1.9516

                     13                     14                     15
                      A                      A                      A
 Frequencies --    482.3401               527.0631               549.7550
 Red. masses --      5.3162                 5.5922                 3.9492
 Frc consts  --      0.7287                 0.9153                 0.7032
 IR Inten    --      0.4987                 4.8620                 3.9472

                     16                     17                     18
                      A                      A                      A
 Frequencies --    606.1850               638.9194               651.8493
 Red. masses --      4.8640                12.8468                 4.6562
 Frc consts  --      1.0531                 3.0899                 1.1657
 IR Inten    --      6.1189                 5.3461                 3.6860

                     19                     20                     21
                      A                      A                      A
 Frequencies --    747.2980               754.6660               773.3357
 Red. masses --      7.7190                 3.2878                 8.7778
 Frc consts  --      2.5398                 1.1032                 3.0929
 IR Inten    --      0.0421                 0.0617                84.6094

                     22                     23                     24
                      A                      A                      A
 Frequencies --    790.7271               863.4877               877.1748
 Red. masses --      1.2077                 1.4205                 4.7094
 Frc consts  --      0.4449                 0.6240                 2.1350
 IR Inten    --     21.8734                23.6169                25.9950

                     25                     26                     27
                      A                      A                      A
 Frequencies --    896.6359               899.6631               908.0460
 Red. masses --      1.3722                 6.5245                 1.4753
 Frc consts  --      0.6500                 3.1114                 0.7167
 IR Inten    --      1.4189                32.4382                 3.7470

                     28                     29                     30
                      A                      A                      A
 Frequencies --   1003.1152              1026.7239              1065.2253
 Red. masses --      5.4669                 1.5561                 1.5607
 Frc consts  --      3.2411                 0.9665                 1.0434
 IR Inten    --      2.3114                 1.3731                 5.3772

                     31                     32                     33
                      A                      A                      A
 Frequencies --   1068.8670              1153.2708              1179.3947
 Red. masses --      3.4919                 2.0369                 1.7646
 Frc consts  --      2.3505                 1.5962                 1.4462
 IR Inten    --     10.7618                35.1443                46.3932

                     34                     35                     36
                      A                      A                      A
 Frequencies --   1219.0037              1253.1769              1309.5714
 Red. masses --      1.7418                 1.4066                 5.4499
 Frc consts  --      1.5249                 1.3015                 5.5068
 IR Inten    --     19.9568                44.0416                 9.6251

                     37                     38                     39
                      A                      A                      A
 Frequencies --   1320.5412              1355.3348              1419.6218
 Red. masses --      3.1231                 2.6232                 2.0647
 Frc consts  --      3.2088                 2.8391                 2.4516
 IR Inten    --      5.9689                35.1180                17.3534

                     40                     41                     42
                      A                      A                      A
 Frequencies --   1427.8924              1470.6249              1474.3076
 Red. masses --      1.6385                 5.2067                 5.5901
 Frc consts  --      1.9683                 6.6346                 7.1589
 IR Inten    --      5.0487                36.1090                52.1159

                     43                     44                     45
                      A                      A                      A
 Frequencies --   1497.0321              1500.6204              1565.8259
 Red. masses --      1.0501                 1.1161                 6.1456
 Frc consts  --      1.3866                 1.4808                 8.8778
 IR Inten    --     12.2342                59.9399                44.4387

                     46                     47                     48
                      A                      A                      A
 Frequencies --   1606.8723              1641.9365              3050.4066
 Red. masses --      6.4579                 5.9249                 1.0372
 Frc consts  --      9.8243                 9.4111                 5.6863
 IR Inten    --    155.2756               185.4876                15.4789

                     49                     50                     51
                      A                      A                      A
 Frequencies --   3110.6779              3141.0732              3194.8419
 Red. masses --      1.1007                 1.1022                 1.0913
 Frc consts  --      6.2753                 6.4070                 6.5631
 IR Inten    --     10.8825                13.1463                 6.8538

                     52                     53                     54
                      A                      A                      A
 Frequencies --   3229.1096              3240.3543              3256.4436
 Red. masses --      1.0928                 1.0937                 1.0944
 Frc consts  --      6.7134                 6.7663                 6.8377
 IR Inten    --      0.2574                 0.0642                 1.0812

 - Thermochemistry -
 -------------------
 Temperature   298.150 Kelvin.  Pressure   1.00000 Atm.
 Atom     1 has atomic number 35 and mass  78.91834

 Molecular mass:   253.95133 amu.
 Principal axes and moments of inertia in atomic units:
                                 1                 2                 3
     Eigenvalues --         2104.223102       6401.035861       8494.067127
           X                   0.998965         -0.045489         -0.000004
           Y                   0.045489          0.998965          0.000095
           Z                  -0.000000         -0.000095          1.000000
 This molecule is an asymmetric top.
 Rotational symmetry number  1.
 Warning -- assumption of classical behavior for rotation
           may cause significant error
 Rotational temperatures (Kelvin)      0.04116     0.01353     0.01020
 Rotational constants (GHZ):           0.85768     0.28195     0.21247
 Zero-point vibrational energy     372006.5 (Joules/Mol)
                                   88.91169 (Kcal/Mol)
 Warning -- explicit consideration of  16 degrees of freedom as
           vibrations may cause significant error
 Vibrational temperatures:     15.11    47.73   124.80   132.59   221.21
          (Kelvin)            261.84   307.47   354.33   375.12   465.36
                              523.18   689.95   693.98   758.33   790.97
                              872.16   919.26   937.87  1075.20  1085.80
                             1112.66  1137.68  1242.37  1262.06  1290.06
                             1294.41  1306.48  1443.26  1477.23  1532.62
                             1537.86  1659.30  1696.89  1753.87  1803.04
                             1884.18  1899.96  1950.02  2042.52  2054.42
                             2115.90  2121.20  2153.90  2159.06  2252.87
                             2311.93  2362.38  4388.85  4475.57  4519.30
                             4596.66  4645.97  4662.15  4685.30

 Zero-point correction=                           0.141690 (Hartree/Particle)
 Thermal correction to Energy=                    0.153498
 Thermal correction to Enthalpy=                  0.154442
 Thermal correction to Gibbs Free Energy=         0.099641
 Sum of electronic and zero-point Energies=          -3426.486164
 Sum of electronic and thermal Energies=             -3426.474357
 Sum of electronic and thermal Enthalpies=           -3426.473413
 Sum of electronic and thermal Free Energies=        -3426.528213

                     E (Thermal)             CV                S
                      KCal/Mol        Cal/Mol-Kelvin    Cal/Mol-Kelvin
 Total                   96.321             42.570            115.338
 Electronic               0.000              0.000              0.000
 Translational            0.889              2.981             42.496
 Rotational               0.889              2.981             33.103
 Vibrational             94.544             36.608             39.739
 Vibration     1          0.593              1.987              7.914
 Vibration     2          0.594              1.983              5.630
 Vibration     3          0.601              1.958              3.732
 Vibration     4          0.602              1.955              3.614
 Vibration     5          0.619              1.898              2.625
 Vibration     6          0.630              1.864              2.308
 Vibration     7          0.644              1.820              2.012
 Vibration     8          0.661              1.769              1.757
 Vibration     9          0.669              1.745              1.657
 Vibration    10          0.708              1.629              1.293
 Vibration    11          0.737              1.547              1.107
 Vibration    12          0.836              1.295              0.711
 Vibration    13          0.839              1.289              0.704
 Vibration    14          0.882              1.190              0.594
 Vibration    15          0.905              1.140              0.545
 Vibration    16          0.965              1.019              0.439

 Optimization completed.
    -- Stationary point found.
 Normal termination of Gaussian 16 at Wed Aug 14 19:46:19 2024.

 ----------------------------------------------------------------------
 # M062X/def2tzvp int=(grid=ultrafine) pop=nbo7 polar prop=efg volume g
 uess=read geom=check
 ----------------------------------------------------------------------

 ---------
 pyrd8.xyz
 ---------
 Structure from the checkpoint file:  "pyrd8_conf-2.chk"
 Charge =  0 Multiplicity = 1

 SCF Done:  E(RM062X) =  -3429.03780531     A.U. after   12 cycles

  Exact polarizability:     219.134      -7.553     178.043      -0.015       0.076      84.177
 Approx polarizability:     257.609      -2.550     245.723       0.003       0.043     123.005

 Summary of Natural Population Analysis:

                                     Natural Population
             Natural    ---------------------------------------------
  Atom No    Charge        Core      Valence    Rydberg      Total
 --------------------------------------------------------------------
   Br  1    0.04116     27.99996     6.94867    0.01021    34.95884
    C  2    0.18032      1.99999     3.78694    0.03274     5.81968
    N  3   -0.44263      1.99999     5.40673    0.03591     7.44263
    C  4    0.18089      1.99999     3.79637    0.02275     5.81911
    C  5   -0.26476      1.99999     4.23977    0.02500     6.26476
    C  6   -0.01066      1.99999     3.98901    0.02166     6.01066
    N  7   -0.41296      1.99999     5.37855    0.03442     7.41296
    C  8   -0.12145      1.99999     4.09173    0.02972     6.12145
    S  9    0.37794      9.99997     5.58666    0.03544    15.62206
    C 10   -0.24933      1.99999     4.23457    0.01477     6.24933
    C 11    0.04623      1.99999     3.93921    0.01457     5.95377
    C 12   -0.63429      1.99999     4.62481    0.00948     6.63429
    C 13   -0.28553      1.99999     4.26733    0.01822     6.28553
    H 14    0.23646      0.00000     0.76219    0.00135     0.76354
    H 15    0.22175      0.00000     0.77690    0.00135     0.77825
    H 16    0.22079      0.00000     0.77778    0.00143     0.77921
    H 17    0.23053      0.00000     0.76831    0.00116     0.76947
    H 18    0.22204      0.00000     0.77692    0.00104     0.77796
    H 19    0.22884      0.00000     0.77002    0.00114     0.77116
    H 20    0.23466      0.00000     0.76397    0.00137     0.76534
 ====================================================================
 * Total *  0.00000     59.99984    65.68643    0.31374   126.00000

 Normal termination of Gaussian 16 at Wed Aug 14 19:52:31 2024.
 Gaussian 16:  ES64L-G16RevC.01  3-Jul-2019

 --------------------------------------------------------------------
 # M062X/def2tzvp int=(grid=ultrafine) nmr=giao guess=read geom=check
 --------------------------------------------------------------------

 ---------
 pyrd8.xyz
 ---------
 Structure from the checkpoint file:  "pyrd8_conf-2.chk"
 Charge =  0 Multiplicity = 1

                         Standard orientation:
 ---------------------------------------------------------------------
 Center     Atomic      Atomic             Coordinates (Angstroms)
 Number     Number       Type             X           Y           Z
 ---------------------------------------------------------------------
      1         35           0       -3.055451   -1.247802    0.000225
      2          6           0       -1.587057   -0.007859   -0.000337
      3          7           0       -0.382351   -0.525943    0.000650
      4          6           0        0.665383    0.330125   -0.000361
      5          6           0        1.984358   -0.301194   -0.000080
      6          6           0        2.257766   -1.648612    0.000644
      7          7           0        3.583482   -2.002778    0.000908
      8          6           0        4.341233   -0.944587    0.000401
      9         16           0        3.491997    0.583916   -0.000403
     10          6           0        0.484787    1.716037   -0.002318
     11          6           0       -0.809562    2.249400   -0.002633
     12          6           0       -1.029796    3.739032    0.002860
     13          6           0       -1.881880    1.357682   -0.002399
     14          1           0        1.488510   -2.409012    0.001001
     15          1           0        5.424070   -0.967309    0.000445
     16          1           0        1.343205    2.380193   -0.004125
     17          1           0       -0.643495    4.184066    0.926133
     18          1           0       -2.090576    3.986618   -0.075046
     19          1           0       -0.503932    4.214368   -0.831335
     20          1           0       -2.908256    1.702381   -0.004064
 ---------------------------------------------------------------------

 SCF Done:  E(RM062X) =  -3429.03780531     A.U. after    1 cycles

      1  Br   Isotropic =  1898.7869   Anisotropy =  1543.6656

      2  C    Isotropic =     1.6452   Anisotropy =   114.8734

      3  N    Isotropic =  -115.3763   Anisotropy =   533.2019

      4  C    Isotropic =    10.4729   Anisotropy =   186.1486

      5  C    Isotropic =    21.6041   Anisotropy =   120.0144

      6  C    Isotropic =    20.0784   Anisotropy =   141.3138

      7  N    Isotropic =  -156.0331   Anisotropy =   556.9606

      8  C    Isotropic =     4.6060   Anisotropy =   144.7474

      9  S    Isotropic =   151.8109   Anisotropy =   283.0377

     10  C    Isotropic =    46.2002   Anisotropy =   165.7058

     11  C    Isotropic =     8.9752   Anisotropy =   247.0933

     12  C    Isotropic =   163.6984   Anisotropy =    40.3134

     13  C    Isotropic =    37.1250   Anisotropy =   145.1085

     14  H    Isotropic =    22.2899   Anisotropy =     7.7044

     15  H    Isotropic =    22.5080   Anisotropy =     6.8031

     16  H    Isotropic =    24.0040   Anisotropy =    12.8057

     17  H    Isotropic =    29.4002   Anisotropy =     8.0442

     18  H    Isotropic =    29.7821   Anisotropy =     7.5467

     19  H    Isotropic =    29.4196   Anisotropy =     7.9360

     20  H    Isotropic =    24.1205   Anisotropy =    12.0240

 The electronic state is 1-A.
 Alpha  occ. eigenvalues -- -485.37392 -89.95054 -63.35884 -57.17827 -57.17595
 Alpha  occ. eigenvalues --  -57.17580 -14.76989 -14.76422 -10.64407 -10.61757
 Alpha  occ. eigenvalues --  -10.61736 -10.59087 -10.59042 -10.58085 -10.56908
 Alpha  occ. eigenvalues --  -10.56765 -10.55848  -9.02533  -8.30835  -6.84937
 Alpha  occ. eigenvalues --   -6.84077  -6.84029  -6.22728  -6.22554  -6.22425
 Alpha  occ. eigenvalues --   -2.88313  -2.88009  -2.87959  -2.87159  -2.87159
 Alpha  occ. eigenvalues --   -1.09003  -1.07758  -0.94498  -0.93556  -0.89205
 Alpha  occ. eigenvalues --   -0.85195  -0.83125  -0.82366  -0.74809  -0.69785
 Alpha  occ. eigenvalues --   -0.66625  -0.64644  -0.60556  -0.58963  -0.57195
 Alpha  occ. eigenvalues --   -0.52733  -0.51850  -0.50199  -0.50070  -0.49261
 Alpha  occ. eigenvalues --   -0.48283  -0.47983  -0.47027  -0.43739  -0.42864
 Alpha  occ. eigenvalues --   -0.39722  -0.36190  -0.35632  -0.35172  -0.34678
 Alpha  occ. eigenvalues --   -0.34602  -0.32577  -0.28849
 Alpha virt. eigenvalues --   -0.04326  -0.01407   0.02687   0.03473   0.03741
 Alpha virt. eigenvalues --    0.06134   0.07988   0.09516   0.10045   0.10461
 Alpha virt. eigenvalues --    0.11164   0.13173   0.13192   0.13511   0.13903

 Mulliken charges:
               1
     1  Br  -0.097641
     2  C    0.125927
     3  N   -0.250273
     4  C    0.225277
     5  C   -0.000709
     6  C   -0.097858
     7  N   -0.201412
     8  C   -0.094400
     9  S    0.033001
    10  C   -0.205883
    11  C    0.098178
    12  C   -0.486931
    13  C   -0.222970
    14  H    0.178103
    15  H    0.171906
    16  H    0.172835
    17  H    0.168958
    18  H    0.149707
    19  H    0.165700
    20  H    0.168485
 Sum of Mulliken charges =  -0.00000

 Dipole moment (field-independent basis, Debye):
    X=              0.5532    Y=              4.8176    Z=              0.0091  Tot=              4.8493
 Quadrupole moment (field-independent basis, Debye-Ang):
   XX=            -88.8152   YY=            -90.4511   ZZ=            -97.8871
   XY=              1.8853   XZ=             -0.0123   YZ=              0.0384

 Normal termination of Gaussian 16 at Wed Aug 14 19:54:58 2024.
