 Gaussian 16, Revision C.01,

 ----------------------------------------------------------------------
 # B3LYP gen 6D pseudo=read symmetry=loose empiricaldispersion=GD3BJ in
 t=(grid=ultrafine) opt freq=noraman
 ----------------------------------------------------------------------

 ----------
 pyrdz1.xyz
 ----------
 Symbolic Z-matrix:
 Charge =  0 Multiplicity = 1

 SCF Done:  E(RB3LYP) =  -723.383608873     A.U. after   15 cycles
 SCF Done:  E(RB3LYP) =  -723.388066875     A.U. after   13 cycles
 SCF Done:  E(RB3LYP) =  -723.388798278     A.U. after   13 cycles
 SCF Done:  E(RB3LYP) =  -723.388974034     A.U. after   13 cycles
 SCF Done:  E(RB3LYP) =  -723.389038437     A.U. after   12 cycles
 SCF Done:  E(RB3LYP) =  -723.389067514     A.U. after   10 cycles
 SCF Done:  E(RB3LYP) =  -723.389070840     A.U. after    9 cycles
 SCF Done:  E(RB3LYP) =  -723.389071135     A.U. after    8 cycles
 SCF Done:  E(RB3LYP) =  -723.389071203     A.U. after    7 cycles
 Optimization completed.
    -- Stationary point found.
 Normal termination of Gaussian 16 at Wed Aug 14 19:55:51 2024.

 ------------------------------------------------------------------
 #N Geom=AllCheck Guess=TCheck SCRF=Check GenChk RB3LYP/ChkBas Freq
 ------------------------------------------------------------------

 Structure from the checkpoint file:  "pyrdz1_conf-1.chk"
 ----------
 pyrdz1.xyz
 ----------
 Charge =  0 Multiplicity = 1

 SCF Done:  E(RB3LYP) =  -723.389071203     A.U. after    1 cycles

                      1                      2                      3
                      A                      A                      A
 Frequencies --     24.2424                30.4322                46.9971
 Red. masses --      3.6583                 5.8104                 4.3875
 Frc consts  --      0.0013                 0.0032                 0.0057
 IR Inten    --      0.2224                 1.2141                 4.8162

                      4                      5                      6
                      A                      A                      A
 Frequencies --     68.4149                92.0264               155.4083
 Red. masses --      5.7376                 5.1938                 6.3023
 Frc consts  --      0.0158                 0.0259                 0.0897
 IR Inten    --      1.3558                 0.2224                 0.9197

                      7                      8                      9
                      A                      A                      A
 Frequencies --    169.3815               184.3034               202.9438
 Red. masses --      5.3383                 5.0121                 5.1541
 Frc consts  --      0.0902                 0.1003                 0.1251
 IR Inten    --      0.2744                 0.4254                 0.6232

                     10                     11                     12
                      A                      A                      A
 Frequencies --    228.4796               234.2065               265.9341
 Red. masses --      2.5253                 1.2862                 1.2640
 Frc consts  --      0.0777                 0.0416                 0.0527
 IR Inten    --      2.4979                 0.6429                 0.7605

                     13                     14                     15
                      A                      A                      A
 Frequencies --    283.6217               306.4137               338.9834
 Red. masses --      4.0795                 3.5458                 6.2182
 Frc consts  --      0.1933                 0.1961                 0.4210
 IR Inten    --      1.3586                 5.3625                 2.3427

                     16                     17                     18
                      A                      A                      A
 Frequencies --    371.0223               387.3124               423.4706
 Red. masses --      3.8086                 3.8743                 4.9429
 Frc consts  --      0.3089                 0.3424                 0.5223
 IR Inten    --      0.2206                 0.2904                 1.2461

                     19                     20                     21
                      A                      A                      A
 Frequencies --    490.1999               497.6471               528.3849
 Red. masses --      3.9669                 3.9061                 4.9197
 Frc consts  --      0.5616                 0.5699                 0.8093
 IR Inten    --      1.5398                 2.2540                 5.7102

                     22                     23                     24
                      A                      A                      A
 Frequencies --    564.1549               580.2541               606.6761
 Red. masses --      5.8456                 6.2751                 3.4586
 Frc consts  --      1.0962                 1.2448                 0.7500
 IR Inten    --      2.9867                 6.0099                 3.3729

                     25                     26                     27
                      A                      A                      A
 Frequencies --    625.6534               672.2683               704.3449
 Red. masses --      4.1653                 8.3981                 5.0264
 Frc consts  --      0.9607                 2.2362                 1.4692
 IR Inten    --      2.4867                 1.8303                 0.7320

                     28                     29                     30
                      A                      A                      A
 Frequencies --    712.6275               804.3122               810.7844
 Red. masses --      4.5108                 4.4561                 5.1587
 Frc consts  --      1.3497                 1.6985                 1.9980
 IR Inten    --      0.0747                 6.7630                 0.7194

                     31                     32                     33
                      A                      A                      A
 Frequencies --    843.6060               865.8717               867.8375
 Red. masses --      1.4677                 1.3515                 8.0888
 Frc consts  --      0.6154                 0.5970                 3.5893
 IR Inten    --     30.3665                11.1503                95.4094

                     34                     35                     36
                      A                      A                      A
 Frequencies --    875.1759               906.3421               939.5270
 Red. masses --      1.5579                 2.6232                 1.1502
 Frc consts  --      0.7030                 1.2696                 0.5982
 IR Inten    --      8.7864                 3.4345                 2.3831

                     37                     38                     39
                      A                      A                      A
 Frequencies --    973.9359               989.2115              1003.4185
 Red. masses --      1.5535                 1.3153                 1.3147
 Frc consts  --      0.8682                 0.7583                 0.7799
 IR Inten    --      0.0489                 0.8356                 0.3235

                     40                     41                     42
                      A                      A                      A
 Frequencies --   1039.2685              1063.5234              1091.5738
 Red. masses --      6.8190                 2.9722                 1.9466
 Frc consts  --      4.3393                 1.9807                 1.3666
 IR Inten    --     13.0940                 1.9956                 8.4631

                     43                     44                     45
                      A                      A                      A
 Frequencies --   1101.3179              1127.9365              1161.0369
 Red. masses --      1.8203                 2.3223                 1.7200
 Frc consts  --      1.3008                 1.7407                 1.3660
 IR Inten    --     72.0702                 0.0293                 6.4337

                     46                     47                     48
                      A                      A                      A
 Frequencies --   1169.1480              1183.9087              1205.1761
 Red. masses --      1.4162                 1.9323                 4.0058
 Frc consts  --      1.1405                 1.5958                 3.4280
 IR Inten    --     12.4609                 5.1874                 1.8685

                     49                     50                     51
                      A                      A                      A
 Frequencies --   1245.9817              1256.3773              1267.9992
 Red. masses --      2.8809                 1.8493                 1.5389
 Frc consts  --      2.6351                 1.7199                 1.4578
 IR Inten    --     44.3256                 0.7116                 3.6495

                     52                     53                     54
                      A                      A                      A
 Frequencies --   1303.9567              1340.1255              1348.8488
 Red. masses --      3.6404                 3.7930                 1.3268
 Frc consts  --      3.6469                 4.0136                 1.4222
 IR Inten    --     19.4458                 2.1144                 1.7386

                     55                     56                     57
                      A                      A                      A
 Frequencies --   1357.9694              1406.8238              1407.5140
 Red. masses --      3.2621                 1.2374                 2.5710
 Frc consts  --      3.5442                 1.4429                 3.0009
 IR Inten    --      0.2343                 3.1445                18.3896

                     58                     59                     60
                      A                      A                      A
 Frequencies --   1426.5997              1452.8309              1462.9377
 Red. masses --      1.2486                 3.9634                 2.6457
 Frc consts  --      1.4972                 4.9288                 3.3361
 IR Inten    --      4.8779                29.4019               114.0207

                     61                     62                     63
                      A                      A                      A
 Frequencies --   1499.1428              1508.3281              1514.8716
 Red. masses --      1.0407                 1.0485                 1.0490
 Frc consts  --      1.3780                 1.4054                 1.4183
 IR Inten    --      0.7445                 0.9470                12.1703

                     64                     65                     66
                      A                      A                      A
 Frequencies --   1521.5623              1529.7752              1599.0881
 Red. masses --      2.8961                 1.0740                 5.1421
 Frc consts  --      3.9504                 1.4809                 7.7471
 IR Inten    --     53.6909                 7.5238                20.4934

                     67                     68                     69
                      A                      A                      A
 Frequencies --   1618.2162              1634.1821              1651.6015
 Red. masses --      8.3938                 6.4469                 7.0692
 Frc consts  --     12.9504                10.1438                11.3614
 IR Inten    --     38.5985                15.8709               100.0261

                     70                     71                     72
                      A                      A                      A
 Frequencies --   3037.2205              3046.5479              3049.7943
 Red. masses --      1.0837                 1.0347                 1.0361
 Frc consts  --      5.8900                 5.6580                 5.6782
 IR Inten    --     23.4040                31.6045                33.2084

                     73                     74                     75
                      A                      A                      A
 Frequencies --   3117.2082              3119.6941              3135.1703
 Red. masses --      1.1033                 1.1027                 1.1028
 Frc consts  --      6.3166                 6.3231                 6.3865
 IR Inten    --     17.9962                53.8147                 3.5719

                     76                     77                     78
                      A                      A                      A
 Frequencies --   3139.3455              3195.3251              3222.4417
 Red. masses --      1.1021                 1.0917                 1.0890
 Frc consts  --      6.3993                 6.5672                 6.6624
 IR Inten    --     34.3860                13.6606                 1.6995

                     79                     80                     81
                      A                      A                      A
 Frequencies --   3235.4171              3237.3516              3262.4502
 Red. masses --      1.0939                 1.0932                 1.0932
 Frc consts  --      6.7464                 6.7506                 6.8555
 IR Inten    --      3.1242                 0.2723                 0.6818

 - Thermochemistry -
 -------------------
 Temperature   298.150 Kelvin.  Pressure   1.00000 Atm.
 Atom     1 has atomic number  6 and mass  12.00000

 Molecular mass:   341.99885 amu.
 Principal axes and moments of inertia in atomic units:
                                 1                 2                 3
     Eigenvalues --         1363.592577      19427.814154      20374.047211
           X                   0.999956          0.009417         -0.000472
           Y                  -0.009417          0.999956         -0.000526
           Z                   0.000467          0.000530          1.000000
 This molecule is an asymmetric top.
 Rotational symmetry number  1.
 Warning -- assumption of classical behavior for rotation
           may cause significant error
 Rotational temperatures (Kelvin)      0.06352     0.00446     0.00425
 Rotational constants (GHZ):           1.32352     0.09289     0.08858
 Zero-point vibrational energy     585999.2 (Joules/Mol)
                                  140.05717 (Kcal/Mol)
 Warning -- explicit consideration of  24 degrees of freedom as
           vibrations may cause significant error
 Vibrational temperatures:     34.88    43.79    67.62    98.43   132.41
          (Kelvin)            223.60   243.70   265.17   291.99   328.73
                              336.97   382.62   408.07   440.86   487.72
                              533.82   557.26   609.28   705.29   716.00
                              760.23   811.69   834.86   872.87   900.18
                              967.24  1013.40  1025.31  1157.23  1166.54
                             1213.76  1245.80  1248.62  1259.18  1304.02
                             1351.77  1401.28  1423.25  1443.70  1495.28
                             1530.17  1570.53  1584.55  1622.85  1670.47
                             1682.14  1703.38  1733.98  1792.69  1807.65
                             1824.37  1876.10  1928.14  1940.69  1953.82
                             2024.11  2025.10  2052.56  2090.30  2104.84
                             2156.93  2170.15  2179.56  2189.19  2201.01
                             2300.73  2328.25  2351.22  2376.29  4369.88
                             4383.30  4387.97  4484.97  4488.54  4510.81
                             4516.82  4597.36  4636.37  4655.04  4657.83
                             4693.94

 Zero-point correction=                           0.223195 (Hartree/Particle)
 Thermal correction to Energy=                    0.238861
 Thermal correction to Enthalpy=                  0.239805
 Thermal correction to Gibbs Free Energy=         0.177138
 Sum of electronic and zero-point Energies=           -723.165876
 Sum of electronic and thermal Energies=              -723.150210
 Sum of electronic and thermal Enthalpies=            -723.149266
 Sum of electronic and thermal Free Energies=         -723.211934

                     E (Thermal)             CV                S
                      KCal/Mol        Cal/Mol-Kelvin    Cal/Mol-Kelvin
 Total                  149.888             58.446            131.895
 Electronic               0.000              0.000              0.000
 Translational            0.889              2.981             43.383
 Rotational               0.889              2.981             34.644
 Vibrational            148.110             52.484             53.867
 Vibration     1          0.593              1.985              6.252
 Vibration     2          0.594              1.984              5.801
 Vibration     3          0.595              1.979              4.940
 Vibration     4          0.598              1.969              4.198
 Vibration     5          0.602              1.955              3.617
 Vibration     6          0.620              1.897              2.605
 Vibration     7          0.625              1.880              2.442
 Vibration     8          0.631              1.861              2.284
 Vibration     9          0.639              1.836              2.106
 Vibration    10          0.651              1.798              1.891
 Vibration    11          0.654              1.789              1.846
 Vibration    12          0.672              1.736              1.622
 Vibration    13          0.682              1.704              1.512
 Vibration    14          0.697              1.662              1.382
 Vibration    15          0.719              1.598              1.217
 Vibration    16          0.743              1.532              1.076
 Vibration    17          0.756              1.497              1.010
 Vibration    18          0.786              1.419              0.880
 Vibration    19          0.846              1.272              0.683
 Vibration    20          0.853              1.255              0.664
 Vibration    21          0.883              1.187              0.591
 Vibration    22          0.920              1.109              0.516
 Vibration    23          0.937              1.074              0.485
 Vibration    24          0.965              1.018              0.438

 Optimization completed.
    -- Stationary point found.
 Normal termination of Gaussian 16 at Wed Aug 14 19:58:54 2024.

 ----------------------------------------------------------------------
 # M062X gen pseudo=read int=(grid=ultrafine) pop=nbo7 polar prop=efg v
 olume guess=read geom=check
 ----------------------------------------------------------------------

 ----------
 pyrdz1.xyz
 ----------
 Structure from the checkpoint file:  "pyrdz1_conf-1.chk"
 Charge =  0 Multiplicity = 1

 SCF Done:  E(RM062X) =  -723.266926345     A.U. after   13 cycles

  Exact polarizability:     334.574      -1.437     161.486       1.093      -1.786     106.875
 Approx polarizability:     331.037      -3.937     238.153       2.037      -5.891     142.867

 Summary of Natural Population Analysis:

                                     Natural Population
             Natural    ---------------------------------------------
  Atom No    Charge        Core      Valence    Rydberg      Total
 --------------------------------------------------------------------
    C  1   -0.59771      1.99999     4.58859    0.00912     6.59771
    C  2   -0.24419      1.99999     4.23167    0.01253     6.24419
    C  3   -0.59759      1.99999     4.58849    0.00911     6.59759
    C  4    0.18810      1.99999     3.78888    0.02303     5.81190
    N  5   -0.21950      1.99999     5.18458    0.03492     7.21950
    N  6   -0.20526      1.99999     5.17115    0.03412     7.20526
    C  7    0.13315      1.99999     3.84562    0.02124     5.86685
    C  8   -0.14467      1.99999     4.12577    0.01891     6.14467
    C  9   -0.14139      1.99999     4.12544    0.01596     6.14139
    C 10   -0.26746      1.99999     4.24806    0.01940     6.26746
    C 11   -0.13335      1.99999     4.10749    0.02587     6.13335
    I 12    0.17493     46.00000     6.82011    0.00496    52.82507
    C 13   -0.32202      1.99999     4.30063    0.02140     6.32202
    C 14    0.41988      1.99999     3.55812    0.02201     5.58012
    F 15   -0.32541      2.00000     7.31572    0.00969     9.32541
    C 16   -0.18589      1.99999     4.17057    0.01533     6.18589
    C 17   -0.20864      1.99999     4.19251    0.01614     6.20864
    H 18    0.20847      0.00000     0.79046    0.00107     0.79153
    H 19    0.20859      0.00000     0.79042    0.00099     0.79141
    H 20    0.22272      0.00000     0.77586    0.00142     0.77728
    H 21    0.19911      0.00000     0.79878    0.00211     0.80089
    H 22    0.22260      0.00000     0.77599    0.00141     0.77740
    H 23    0.20847      0.00000     0.79045    0.00107     0.79153
    H 24    0.20897      0.00000     0.79005    0.00098     0.79103
    H 25    0.25274      0.00000     0.74577    0.00148     0.74726
    H 26    0.23403      0.00000     0.76452    0.00146     0.76597
    H 27    0.24663      0.00000     0.75167    0.00170     0.75337
    H 28    0.24097      0.00000     0.75757    0.00146     0.75903
    H 29    0.22369      0.00000     0.77494    0.00137     0.77631
 ====================================================================
 * Total *  0.00000     77.99988    87.66987    0.33026   166.00000

 Normal termination of Gaussian 16 at Wed Aug 14 20:13:40 2024.
 Gaussian 16:  ES64L-G16RevC.01  3-Jul-2019

 ----------------------------------------------------------------------
 # M062X gen pseudo=read int=(grid=ultrafine) nmr=giao guess=read geom=
 check
 ----------------------------------------------------------------------

 ----------
 pyrdz1.xyz
 ----------
 Structure from the checkpoint file:  "pyrdz1_conf-1.chk"
 Charge =  0 Multiplicity = 1

                         Standard orientation:
 ---------------------------------------------------------------------
 Center     Atomic      Atomic             Coordinates (Angstroms)
 Number     Number       Type             X           Y           Z
 ---------------------------------------------------------------------
      1          6           0       -6.451294   -1.122989   -1.093333
      2          6           0       -6.018368   -0.095707   -0.034860
      3          6           0       -6.474656   -0.520186    1.370562
      4          6           0       -4.516997    0.100754   -0.067210
      5          7           0       -3.775401   -0.986603    0.195837
      6          7           0       -2.454168   -0.915283    0.200308
      7          6           0       -1.821154    0.243673   -0.062961
      8          6           0       -0.340757    0.159386   -0.042951
      9          6           0        0.284433   -1.098461   -0.108754
     10          6           0        1.666716   -1.241921   -0.093270
     11          6           0        2.465784   -0.102103   -0.004526
     12         53           0        4.593012   -0.293891    0.014612
     13          6           0        1.896521    1.163891    0.072042
     14          6           0        0.510925    1.266046    0.052556
     15          9           0       -0.001709    2.516800    0.147042
     16          6           0       -2.541902    1.413934   -0.358012
     17          6           0       -3.920687    1.332984   -0.356031
     18          1           0       -7.536655   -1.261809   -1.071328
     19          1           0       -6.167391   -0.800679   -2.100008
     20          1           0       -5.970894   -2.085057   -0.897021
     21          1           0       -6.480186    0.870446   -0.275397
     22          1           0       -5.995951   -1.462843    1.648569
     23          1           0       -7.560189   -0.657088    1.396179
     24          1           0       -6.206148    0.230971    2.119892
     25          1           0       -0.355725   -1.970190   -0.167889
     26          1           0        2.112036   -2.227336   -0.151610
     27          1           0        2.488605    2.066417    0.151534
     28          1           0       -2.031972    2.339013   -0.584778
     29          1           0       -4.534188    2.200574   -0.578479
 ---------------------------------------------------------------------

 SCF Done:  E(RM062X) =  -723.266926345     A.U. after    1 cycles

      1  C    Isotropic =   161.0416   Anisotropy =    33.4486

      2  C    Isotropic =   143.9860   Anisotropy =    22.1117

      3  C    Isotropic =   160.7043   Anisotropy =    33.9568

      4  C    Isotropic =   -11.9697   Anisotropy =   245.2733

      5  N    Isotropic =  -283.3194   Anisotropy =   780.0615

      6  N    Isotropic =  -282.4306   Anisotropy =   770.6123

      7  C    Isotropic =     5.5557   Anisotropy =   216.8934

      8  C    Isotropic =    41.0815   Anisotropy =   177.2223

      9  C    Isotropic =    31.7315   Anisotropy =   212.9635

     10  C    Isotropic =    31.3420   Anisotropy =   176.3364

     11  C    Isotropic =    21.3426   Anisotropy =   157.5251

     12  I    Isotropic =    45.2823   Anisotropy =    27.5157

     13  C    Isotropic =    42.0755   Anisotropy =   146.8652

     14  C    Isotropic =     1.4080   Anisotropy =   112.7418

     15  F    Isotropic =   288.5701   Anisotropy =   137.8819

     16  C    Isotropic =    39.1191   Anisotropy =   208.7774

     17  C    Isotropic =    41.6092   Anisotropy =   191.1569

     18  H    Isotropic =    30.6166   Anisotropy =     9.2636

     19  H    Isotropic =    30.6589   Anisotropy =     8.7118

     20  H    Isotropic =    29.8029   Anisotropy =     8.1312

     21  H    Isotropic =    28.8839   Anisotropy =     7.8948

     22  H    Isotropic =    29.8426   Anisotropy =     7.9913

     23  H    Isotropic =    30.6193   Anisotropy =     9.2914

     24  H    Isotropic =    30.6566   Anisotropy =     8.7755

     25  H    Isotropic =    21.9030   Anisotropy =     7.4841

     26  H    Isotropic =    23.8175   Anisotropy =    10.1066

     27  H    Isotropic =    24.0022   Anisotropy =    10.3898

     28  H    Isotropic =    23.0587   Anisotropy =    13.9471

     29  H    Isotropic =    24.2118   Anisotropy =    10.0191

 The electronic state is 1-A.
 Alpha  occ. eigenvalues --  -25.27645 -14.79290 -14.79006 -10.65265 -10.61334
 Alpha  occ. eigenvalues --  -10.60559 -10.59336 -10.57969 -10.57617 -10.57444
 Alpha  occ. eigenvalues --  -10.57163 -10.56629 -10.56516 -10.55632 -10.52900
 Alpha  occ. eigenvalues --  -10.52896  -1.39008  -1.13729  -0.99769  -0.95923
 Alpha  occ. eigenvalues --   -0.93602  -0.89174  -0.86919  -0.86320  -0.78416
 Alpha  occ. eigenvalues --   -0.77960  -0.76413  -0.74194  -0.72239  -0.70057
 Alpha  occ. eigenvalues --   -0.67175  -0.63129  -0.60761  -0.60221  -0.58921
 Alpha  occ. eigenvalues --   -0.58757  -0.55648  -0.53128  -0.52836  -0.52277
 Alpha  occ. eigenvalues --   -0.51920  -0.50585  -0.49137  -0.48023  -0.47681
 Alpha  occ. eigenvalues --   -0.46204  -0.45132  -0.44928  -0.43225  -0.41199
 Alpha  occ. eigenvalues --   -0.40425  -0.40252  -0.38301  -0.38086  -0.36808
 Alpha  occ. eigenvalues --   -0.33024  -0.32630  -0.32063  -0.30697  -0.28789
 Alpha virt. eigenvalues --   -0.03793  -0.02563  -0.01452   0.00660   0.03383
 Alpha virt. eigenvalues --    0.05182   0.05919   0.06001   0.06419   0.08666
 Alpha virt. eigenvalues --    0.10010   0.10495   0.11402   0.11766   0.12297

 Mulliken charges:
               1
     1  C   -0.432827
     2  C   -0.144086
     3  C   -0.433405
     4  C    0.146126
     5  N   -0.193408
     6  N   -0.159571
     7  C    0.146623
     8  C   -0.019331
     9  C   -0.184275
    10  C   -0.030769
    11  C   -0.368116
    12  I    0.085322
    13  C   -0.089536
    14  C    0.252459
    15  F   -0.215050
    16  C   -0.173365
    17  C   -0.130378
    18  H    0.141148
    19  H    0.142125
    20  H    0.169367
    21  H    0.122806
    22  H    0.169647
    23  H    0.141266
    24  H    0.142802
    25  H    0.189633
    26  H    0.190292
    27  H    0.193947
    28  H    0.176845
    29  H    0.163710
 Sum of Mulliken charges =  -0.00000

 Dipole moment (field-independent basis, Debye):
    X=             -1.6011    Y=              2.0484    Z=             -0.9280  Tot=              2.7605
 Quadrupole moment (field-independent basis, Debye-Ang):
   XX=           -100.5815   YY=           -112.3504   ZZ=           -117.1503
   XY=             -9.2733   XZ=              2.8331   YZ=             -0.0483

 Normal termination of Gaussian 16 at Wed Aug 14 20:19:22 2024.
