 Gaussian 16, Revision C.01,

 ----------------------------------------------------------------------
 # B3LYP/6-31G(d,p) symmetry=loose empiricaldispersion=GD3BJ int=(grid=
 ultrafine) opt freq=noraman
 ----------------------------------------------------------------------

 ----------
 pyrd10.xyz
 ----------
 Symbolic Z-matrix:
 Charge =  0 Multiplicity = 1

 SCF Done:  E(RB3LYP) =  -2937.38379051     A.U. after   14 cycles
 SCF Done:  E(RB3LYP) =  -2937.38569193     A.U. after   11 cycles
 SCF Done:  E(RB3LYP) =  -2937.38583283     A.U. after   10 cycles
 SCF Done:  E(RB3LYP) =  -2937.38584210     A.U. after    9 cycles
 SCF Done:  E(RB3LYP) =  -2937.38584263     A.U. after    8 cycles
 SCF Done:  E(RB3LYP) =  -2937.38584263     A.U. after    8 cycles
 SCF Done:  E(RB3LYP) =  -2937.38584254     A.U. after    8 cycles
 SCF Done:  E(RB3LYP) =  -2937.38584245     A.U. after    7 cycles
 SCF Done:  E(RB3LYP) =  -2937.38584236     A.U. after    7 cycles
 Optimization completed.
    -- Stationary point found.
 Normal termination of Gaussian 16 at Wed Aug 14 18:47:35 2024.

 ----------------------------------------------------------------------
 #N Geom=AllCheck Guess=TCheck SCRF=Check GenChk RB3LYP/6-31G(d,p) Freq
 ----------------------------------------------------------------------

 Structure from the checkpoint file:  "pyrd10_conf-7.chk"
 ----------
 pyrd10.xyz
 ----------
 Charge =  0 Multiplicity = 1

 SCF Done:  E(RB3LYP) =  -2937.38584236     A.U. after    2 cycles

                      1                      2                      3
                      A                      A                      A
 Frequencies --     24.7112                57.7224                85.0590
 Red. masses --      4.5116                 6.6364                 2.0316
 Frc consts  --      0.0016                 0.0130                 0.0087
 IR Inten    --      1.8904                 0.5237                 0.3300

                      4                      5                      6
                      A                      A                      A
 Frequencies --    108.1635               181.7482               226.4641
 Red. masses --      2.6604                 4.8986                 5.7307
 Frc consts  --      0.0183                 0.0953                 0.1732
 IR Inten    --      0.6176                 0.9801                 1.0663

                      7                      8                      9
                      A                      A                      A
 Frequencies --    324.0515               344.0558               413.6059
 Red. masses --      3.1417                 2.5985                 3.2959
 Frc consts  --      0.1944                 0.1812                 0.3322
 IR Inten    --      1.8763                 2.5239                 3.3309

                     10                     11                     12
                      A                      A                      A
 Frequencies --    513.6216               587.3833               638.8127
 Red. masses --      4.1800                 5.1855                 7.1402
 Frc consts  --      0.6497                 1.0541                 1.7168
 IR Inten    --      5.0458                 3.2936                12.0785

                     13                     14                     15
                      A                      A                      A
 Frequencies --    674.0551               732.6457               748.1559
 Red. masses --      5.2677                 2.0284                 1.0866
 Frc consts  --      1.4102                 0.6415                 0.3583
 IR Inten    --     11.9083                22.3945                 2.3857

                     16                     17                     18
                      A                      A                      A
 Frequencies --    816.0862               827.5517               848.4087
 Red. masses --      1.8327                 1.2845                 3.8152
 Frc consts  --      0.7191                 0.5183                 1.6180
 IR Inten    --     12.9519                 0.4149                 0.3863

                     19                     20                     21
                      A                      A                      A
 Frequencies --    946.4223               965.4984               996.6615
 Red. masses --      1.3413                 1.4401                 1.3748
 Frc consts  --      0.7079                 0.7909                 0.8046
 IR Inten    --      0.1110                 0.3769                 0.0468

                     22                     23                     24
                      A                      A                      A
 Frequencies --   1022.0735              1025.1637              1045.3087
 Red. masses --      1.8971                 2.1653                 3.7764
 Frc consts  --      1.1677                 1.3408                 2.4312
 IR Inten    --      0.1383                 0.6537                13.3934

                     25                     26                     27
                      A                      A                      A
 Frequencies --   1065.3959              1074.4708              1116.6086
 Red. masses --      3.8139                 2.5783                 1.2303
 Frc consts  --      2.5506                 1.7538                 0.9038
 IR Inten    --      2.7688                 0.4470                 0.8288

                     28                     29                     30
                      A                      A                      A
 Frequencies --   1155.3511              1226.9380              1231.7819
 Red. masses --      1.2853                 1.6146                 1.2379
 Frc consts  --      1.0108                 1.4321                 1.1066
 IR Inten    --      4.8038                13.6045                18.0049

                     31                     32                     33
                      A                      A                      A
 Frequencies --   1253.1750              1279.7764              1317.4957
 Red. masses --      1.7779                 1.5331                 2.6292
 Frc consts  --      1.6451                 1.4794                 2.6889
 IR Inten    --      1.2605                 3.0688                 0.3974

                     34                     35                     36
                      A                      A                      A
 Frequencies --   1324.5607              1327.5608              1378.2040
 Red. masses --      1.3881                 1.2525                 1.2233
 Frc consts  --      1.4349                 1.3006                 1.3690
 IR Inten    --     26.3116                 0.9906                 2.2071

                     37                     38                     39
                      A                      A                      A
 Frequencies --   1387.6505              1470.6584              1496.3695
 Red. masses --      1.4661                 2.3358                 1.1059
 Frc consts  --      1.6633                 2.9766                 1.4590
 IR Inten    --      1.6650                23.7385                 0.2756

                     40                     41                     42
                      A                      A                      A
 Frequencies --   1501.6672              1518.1417              1523.5126
 Red. masses --      1.0945                 1.0990                 2.2450
 Frc consts  --      1.4542                 1.4924                 3.0702
 IR Inten    --      0.3815                 3.7216                14.3959

                     43                     44                     45
                      A                      A                      A
 Frequencies --   1629.9903              1651.0517              3037.5215
 Red. masses --      5.2711                 5.8388                 1.0594
 Frc consts  --      8.2512                 9.3777                 5.7592
 IR Inten    --     11.4794                 1.6298                21.0005

                     46                     47                     48
                      A                      A                      A
 Frequencies --   3064.8008              3077.7444              3104.1818
 Red. masses --      1.0603                 1.1032                 1.0567
 Frc consts  --      5.8681                 6.1568                 5.9992
 IR Inten    --     12.1918                 7.7905                17.5448

                     49                     50                     51
                      A                      A                      A
 Frequencies --   3111.0134              3147.1071              3168.3129
 Red. masses --      1.1058                 1.0898                 1.0891
 Frc consts  --      6.3056                 6.3594                 6.4411
 IR Inten    --     13.1225                29.5658                13.4481

                     52                     53                     54
                      A                      A                      A
 Frequencies --   3171.4965              3176.9030              3207.8278
 Red. masses --      1.1115                 1.0903                 1.0963
 Frc consts  --      6.5870                 6.4834                 6.6468
 IR Inten    --      8.6786                17.7282                17.6949

 - Thermochemistry -
 -------------------
 Temperature   298.150 Kelvin.  Pressure   1.00000 Atm.
 Atom     1 has atomic number 35 and mass  78.91834

 Molecular mass:   198.99966 amu.
 Principal axes and moments of inertia in atomic units:
                                 1                 2                 3
     Eigenvalues --          580.240585       6747.340916       6828.415375
           X                   0.999903         -0.009308          0.010401
           Y                   0.009518          0.999748         -0.020324
           Z                  -0.010209          0.020421          0.999739
 This molecule is an asymmetric top.
 Rotational symmetry number  1.
 Warning -- assumption of classical behavior for rotation
           may cause significant error
 Rotational temperatures (Kelvin)      0.14927     0.01284     0.01268
 Rotational constants (GHZ):           3.11033     0.26747     0.26430
 Zero-point vibrational energy     432753.3 (Joules/Mol)
                                  103.43052 (Kcal/Mol)
 Warning -- explicit consideration of  11 degrees of freedom as
           vibrations may cause significant error
 Vibrational temperatures:     35.55    83.05   122.38   155.62   261.50
          (Kelvin)            325.83   466.24   495.02   595.09   738.99
                              845.11   919.11   969.81  1054.11  1076.43
                             1174.17  1190.66  1220.67  1361.69  1389.14
                             1433.97  1470.54  1474.98  1503.97  1532.87
                             1545.92  1606.55  1662.29  1765.29  1772.26
                             1803.04  1841.31  1895.58  1905.75  1910.06
                             1982.93  1996.52  2115.95  2152.94  2160.56
                             2184.27  2191.99  2345.19  2375.50  4370.32
                             4409.56  4428.19  4466.23  4476.05  4527.99
                             4558.50  4563.08  4570.85  4615.35

 Zero-point correction=                           0.164827 (Hartree/Particle)
 Thermal correction to Energy=                    0.174520
 Thermal correction to Enthalpy=                  0.175464
 Thermal correction to Gibbs Free Energy=         0.126575
 Sum of electronic and zero-point Energies=          -2937.221015
 Sum of electronic and thermal Energies=             -2937.211323
 Sum of electronic and thermal Enthalpies=           -2937.210379
 Sum of electronic and thermal Free Energies=        -2937.259268

                     E (Thermal)             CV                S
                      KCal/Mol        Cal/Mol-Kelvin    Cal/Mol-Kelvin
 Total                  109.513             34.757            102.896
 Electronic               0.000              0.000              0.000
 Translational            0.889              2.981             41.769
 Rotational               0.889              2.981             31.658
 Vibrational            107.735             28.795             29.468
 Vibration     1          0.593              1.985              6.214
 Vibration     2          0.596              1.974              4.534
 Vibration     3          0.601              1.960              3.771
 Vibration     4          0.606              1.943              3.302
 Vibration     5          0.630              1.865              2.310
 Vibration     6          0.650              1.801              1.907
 Vibration     7          0.709              1.627              1.290
 Vibration     8          0.723              1.587              1.193
 Vibration     9          0.777              1.441              0.914
 Vibration    10          0.869              1.220              0.625
 Vibration    11          0.945              1.059              0.472

 Optimization completed.
    -- Stationary point found.
 Normal termination of Gaussian 16 at Wed Aug 14 18:48:56 2024.

 ----------------------------------------------------------------------
 # M062X/def2tzvp int=(grid=ultrafine) pop=nbo7 polar prop=efg volume g
 uess=read geom=check
 ----------------------------------------------------------------------

 ----------
 pyrd10.xyz
 ----------
 Structure from the checkpoint file:  "pyrd10_conf-7.chk"
 Charge =  0 Multiplicity = 1

 SCF Done:  E(RM062X) =  -2939.78808026     A.U. after   11 cycles

  Exact polarizability:     155.145      -4.654     107.430       8.909       2.253      91.829
 Approx polarizability:     164.490      -3.950     151.608      11.389       5.450     126.342

 Summary of Natural Population Analysis:

                                     Natural Population
             Natural    ---------------------------------------------
  Atom No    Charge        Core      Valence    Rydberg      Total
 --------------------------------------------------------------------
   Br  1   -0.04088     27.99997     7.03064    0.01027    35.04088
    C  2   -0.39427      1.99999     4.37589    0.01838     6.39427
    C  3   -0.41612      1.99999     4.40118    0.01495     6.41612
    C  4   -0.41685      1.99999     4.40404    0.01281     6.41685
    C  5   -0.05901      1.99999     4.04189    0.01713     6.05901
    C  6    0.03184      1.99999     3.94607    0.02210     5.96816
    N  7   -0.40808      1.99999     5.37622    0.03186     7.40808
    C  8    0.02419      1.99999     3.95351    0.02230     5.97581
    C  9   -0.24936      1.99999     4.23319    0.01618     6.24936
    C 10   -0.17637      1.99999     4.15973    0.01665     6.17637
    H 11    0.21529      0.00000     0.78278    0.00193     0.78471
    H 12    0.21426      0.00000     0.78379    0.00195     0.78574
    H 13    0.21328      0.00000     0.78472    0.00200     0.78672
    H 14    0.21671      0.00000     0.78133    0.00196     0.78329
    H 15    0.21152      0.00000     0.78647    0.00201     0.78848
    H 16    0.21305      0.00000     0.78504    0.00191     0.78695
    H 17    0.18958      0.00000     0.80881    0.00161     0.81042
    H 18    0.19553      0.00000     0.80307    0.00140     0.80447
    H 19    0.22164      0.00000     0.77723    0.00113     0.77836
    H 20    0.21405      0.00000     0.78446    0.00149     0.78595
 ====================================================================
 * Total *  0.00000     45.99990    53.80008    0.20003   100.00000

 Normal termination of Gaussian 16 at Wed Aug 14 18:52:48 2024.
 Gaussian 16:  ES64L-G16RevC.01  3-Jul-2019

 --------------------------------------------------------------------
 # M062X/def2tzvp int=(grid=ultrafine) nmr=giao guess=read geom=check
 --------------------------------------------------------------------

 ----------
 pyrd10.xyz
 ----------
 Structure from the checkpoint file:  "pyrd10_conf-7.chk"
 Charge =  0 Multiplicity = 1

                         Standard orientation:
 ---------------------------------------------------------------------
 Center     Atomic      Atomic             Coordinates (Angstroms)
 Number     Number       Type             X           Y           Z
 ---------------------------------------------------------------------
      1         35           0        3.367326    0.158367   -0.372128
      2          6           0        1.888103   -0.387036    0.821749
      3          6           0        0.539262   -0.087588    0.192838
      4          6           0       -0.618611   -0.499532    1.124575
      5          6           0       -1.963480   -0.202139    0.510720
      6          6           0       -2.678170   -1.188842   -0.178572
      7          7           0       -3.854009   -0.990338   -0.783174
      8          6           0       -4.374900    0.240719   -0.719767
      9          6           0       -3.755314    1.302468   -0.059854
     10          6           0       -2.531362    1.074100    0.562576
     11          1           0        2.037793   -1.452021    1.000263
     12          1           0        2.047157    0.163710    1.749135
     13          1           0        0.468577    0.981326   -0.033478
     14          1           0        0.450468   -0.617430   -0.760882
     15          1           0       -0.521336    0.029342    2.080583
     16          1           0       -0.543858   -1.570422    1.346861
     17          1           0       -2.274260   -2.199213   -0.239159
     18          1           0       -5.332088    0.383873   -1.216764
     19          1           0       -4.223927    2.280849   -0.033829
     20          1           0       -2.020049    1.876620    1.088371
 ---------------------------------------------------------------------

 SCF Done:  E(RM062X) =  -2939.78808026     A.U. after    1 cycles

      1  Br   Isotropic =  2327.3037   Anisotropy =  1039.8325

      2  C    Isotropic =   139.5198   Anisotropy =    50.9047

      3  C    Isotropic =   141.1892   Anisotropy =    58.7269

      4  C    Isotropic =   148.3579   Anisotropy =    32.8309

      5  C    Isotropic =    26.2731   Anisotropy =   225.6562

      6  C    Isotropic =    10.7562   Anisotropy =   185.5666

      7  N    Isotropic =  -156.0920   Anisotropy =   681.7459

      8  C    Isotropic =    12.0380   Anisotropy =   205.4061

      9  C    Isotropic =    41.7115   Anisotropy =   203.5685

     10  C    Isotropic =    26.9014   Anisotropy =   219.2029

     11  H    Isotropic =    28.5278   Anisotropy =     9.1763

     12  H    Isotropic =    28.5341   Anisotropy =     8.8675

     13  H    Isotropic =    29.9612   Anisotropy =     6.2456

     14  H    Isotropic =    29.9523   Anisotropy =     5.5621

     15  H    Isotropic =    29.3914   Anisotropy =     5.5431

     16  H    Isotropic =    29.3279   Anisotropy =     6.4509

     17  H    Isotropic =    22.4085   Anisotropy =    10.4375

     18  H    Isotropic =    22.4077   Anisotropy =     7.1099

     19  H    Isotropic =    23.9493   Anisotropy =     6.9538

     20  H    Isotropic =    23.6291   Anisotropy =     9.9094

 The electronic state is 1-A.
 Alpha  occ. eigenvalues -- -485.36277 -63.34783 -57.16725 -57.16487 -57.16484
 Alpha  occ. eigenvalues --  -14.75359 -10.60285 -10.58024 -10.57966 -10.56667
 Alpha  occ. eigenvalues --  -10.56567 -10.56167 -10.55909 -10.55719  -9.01423
 Alpha  occ. eigenvalues --   -6.83824  -6.82951  -6.82943  -2.87190  -2.86879
 Alpha  occ. eigenvalues --   -2.86872  -2.86057  -2.86057  -1.05621  -0.94408
 Alpha  occ. eigenvalues --   -0.91250  -0.88147  -0.84042  -0.77095  -0.72284
 Alpha  occ. eigenvalues --   -0.70600  -0.68483  -0.60394  -0.58009  -0.55206
 Alpha  occ. eigenvalues --   -0.54126  -0.51095  -0.49947  -0.48316  -0.47549
 Alpha  occ. eigenvalues --   -0.47051  -0.45586  -0.42735  -0.41848  -0.40964
 Alpha  occ. eigenvalues --   -0.35016  -0.33980  -0.33836  -0.32852  -0.31435
 Alpha virt. eigenvalues --   -0.00487   0.00867   0.02613   0.05689   0.08131
 Alpha virt. eigenvalues --    0.09011   0.09756   0.10069   0.12114   0.13115
 Alpha virt. eigenvalues --    0.13518   0.14198   0.15343   0.16328   0.16532

 Mulliken charges:
               1
     1  Br  -0.151933
     2  C   -0.209674
     3  C   -0.273892
     4  C   -0.447650
     5  C    0.129938
     6  C   -0.085507
     7  N   -0.219315
     8  C   -0.053846
     9  C   -0.154116
    10  C   -0.143603
    11  H    0.169544
    12  H    0.167203
    13  H    0.166583
    14  H    0.169236
    15  H    0.174107
    16  H    0.169956
    17  H    0.145175
    18  H    0.145226
    19  H    0.143297
    20  H    0.159272
 Sum of Mulliken charges =  -0.00000

 Dipole moment (field-independent basis, Debye):
    X=             -0.5367    Y=              1.1061    Z=              2.2349  Tot=              2.5507
 Quadrupole moment (field-independent basis, Debye-Ang):
   XX=            -85.1618   YY=            -70.4139   ZZ=            -73.5762
   XY=             -9.6655   XZ=              0.2908   YZ=             -1.1881

 Normal termination of Gaussian 16 at Wed Aug 14 18:54:17 2024.
