 Gaussian 16, Revision C.01,

 ----------------------------------------------------------------------
 # B3LYP/6-31G(d,p) symmetry=loose empiricaldispersion=GD3BJ int=(grid=
 ultrafine) opt freq=noraman
 ----------------------------------------------------------------------

 ---------
 pyrd7.xyz
 ---------
 Symbolic Z-matrix:
 Charge =  0 Multiplicity = 1

 SCF Done:  E(RB3LYP) =  -1192.80413373     A.U. after   14 cycles
 SCF Done:  E(RB3LYP) =  -1192.80885795     A.U. after   12 cycles
 SCF Done:  E(RB3LYP) =  -1192.80920761     A.U. after   11 cycles
 SCF Done:  E(RB3LYP) =  -1192.80924954     A.U. after   10 cycles
 SCF Done:  E(RB3LYP) =  -1192.80927179     A.U. after    9 cycles
 SCF Done:  E(RB3LYP) =  -1192.80932458     A.U. after   11 cycles
 SCF Done:  E(RB3LYP) =  -1192.80934160     A.U. after   10 cycles
 SCF Done:  E(RB3LYP) =  -1192.80935431     A.U. after   10 cycles
 SCF Done:  E(RB3LYP) =  -1192.80935508     A.U. after    8 cycles
 SCF Done:  E(RB3LYP) =  -1192.80935792     A.U. after    9 cycles
 SCF Done:  E(RB3LYP) =  -1192.80938119     A.U. after    9 cycles
 SCF Done:  E(RB3LYP) =  -1192.80938178     A.U. after    8 cycles
 SCF Done:  E(RB3LYP) =  -1192.80938204     A.U. after    8 cycles
 SCF Done:  E(RB3LYP) =  -1192.80938210     A.U. after    7 cycles
 SCF Done:  E(RB3LYP) =  -1192.80938223     A.U. after    7 cycles
 SCF Done:  E(RB3LYP) =  -1192.80938227     A.U. after    7 cycles
 SCF Done:  E(RB3LYP) =  -1192.80938228     A.U. after    7 cycles
 Optimization completed.
    -- Stationary point found.
 Normal termination of Gaussian 16 at Wed Aug 14 19:42:52 2024.

 ----------------------------------------------------------------------
 #N Geom=AllCheck Guess=TCheck SCRF=Check GenChk RB3LYP/6-31G(d,p) Freq
 ----------------------------------------------------------------------

 Structure from the checkpoint file:  "pyrd7_conf-2.chk"
 ---------
 pyrd7.xyz
 ---------
 Charge =  0 Multiplicity = 1

 SCF Done:  E(RB3LYP) =  -1192.80938228     A.U. after    1 cycles

                      1                      2                      3
                      A                      A                      A
 Frequencies --     14.0585                16.3427                32.2132
 Red. masses --     17.4015                18.3045                 1.9326
 Frc consts  --      0.0020                 0.0029                 0.0012
 IR Inten    --      0.0153                 0.0437                 1.0512

                      4                      5                      6
                      A                      A                      A
 Frequencies --     40.5410                60.4500                64.8265
 Red. masses --      1.5068                 7.3765                 6.8950
 Frc consts  --      0.0015                 0.0159                 0.0171
 IR Inten    --      0.0339                 0.9325                 0.3692

                      7                      8                      9
                      A                      A                      A
 Frequencies --    109.6327               120.2362               151.5524
 Red. masses --     13.6369                 6.4153                 7.7004
 Frc consts  --      0.0966                 0.0546                 0.1042
 IR Inten    --      1.0544                 0.3231                 0.0251

                     10                     11                     12
                      A                      A                      A
 Frequencies --    191.9910               219.0924               239.6553
 Red. masses --      5.5343                 3.0002                 6.1216
 Frc consts  --      0.1202                 0.0849                 0.2072
 IR Inten    --      0.2159                 0.2272                 0.1956

                     13                     14                     15
                      A                      A                      A
 Frequencies --    263.8535               279.1450               291.4087
 Red. masses --      4.9001                 9.3764                10.5222
 Frc consts  --      0.2010                 0.4305                 0.5265
 IR Inten    --      0.0886                 0.7306                 0.8729

                     16                     17                     18
                      A                      A                      A
 Frequencies --    318.1676               343.8291               365.2288
 Red. masses --      5.7404                 5.5681                 5.2851
 Frc consts  --      0.3424                 0.3878                 0.4154
 IR Inten    --      0.0641                 1.4569                 2.1043

                     19                     20                     21
                      A                      A                      A
 Frequencies --    415.1588               420.7004               445.1828
 Red. masses --      9.4919                 5.2867                 6.6009
 Frc consts  --      0.9639                 0.5513                 0.7708
 IR Inten    --      3.2928                 3.3639                 0.7186

                     22                     23                     24
                      A                      A                      A
 Frequencies --    467.3038               497.1985               518.3757
 Red. masses --      3.9497                12.0889                 8.2547
 Frc consts  --      0.5082                 1.7607                 1.3069
 IR Inten    --      0.3069                 0.0309                 1.5920

                     25                     26                     27
                      A                      A                      A
 Frequencies --    546.6301               554.6932               566.4101
 Red. masses --      5.7269                 6.0977                15.2669
 Frc consts  --      1.0082                 1.1054                 2.8858
 IR Inten    --      1.7830                 1.2633                 0.0043

                     28                     29                     30
                      A                      A                      A
 Frequencies --    619.9019               652.5385               660.1734
 Red. masses --      6.7091                 8.6600                 5.8835
 Frc consts  --      1.5190                 2.1726                 1.5108
 IR Inten    --      1.7111                13.4949                 0.7034

                     31                     32                     33
                      A                      A                      A
 Frequencies --    676.6091               682.0420               714.7760
 Red. masses --      7.8666                13.0596                12.2372
 Frc consts  --      2.1218                 3.5793                 3.6836
 IR Inten    --      1.1205                38.5065                19.4244

                     34                     35                     36
                      A                      A                      A
 Frequencies --    722.5148               736.4870               788.3127
 Red. masses --      2.4616                 2.4093                 9.5608
 Frc consts  --      0.7571                 0.7700                 3.5006
 IR Inten    --     10.6951                10.8448                11.1089

                     37                     38                     39
                      A                      A                      A
 Frequencies --    861.8055               894.6797               916.1620
 Red. masses --      9.7870                 1.5112                 1.5869
 Frc consts  --      4.2827                 0.7127                 0.7848
 IR Inten    --     27.4317                22.2590                25.2263

                     40                     41                     42
                      A                      A                      A
 Frequencies --    935.0374               944.4069               945.4695
 Red. masses --      1.5008                 2.4584                 1.3830
 Frc consts  --      0.7731                 1.2919                 0.7284
 IR Inten    --      1.4982                 9.1398                 3.2609

                     43                     44                     45
                      A                      A                      A
 Frequencies --    952.0178               970.6473              1020.7167
 Red. masses --      1.6165                 1.4585                 3.8499
 Frc consts  --      0.8632                 0.8096                 2.3632
 IR Inten    --      0.7112                 0.4994                 0.0356

                     46                     47                     48
                      A                      A                      A
 Frequencies --   1021.3379              1051.2401              1069.2520
 Red. masses --      1.9547                 4.0932                 1.5433
 Frc consts  --      1.2014                 2.6651                 1.0396
 IR Inten    --      4.4601                 9.8360                 4.1301

                     49                     50                     51
                      A                      A                      A
 Frequencies --   1106.8820              1127.2516              1130.5302
 Red. masses --      3.4842                 2.2490                 1.8153
 Frc consts  --      2.5151                 1.6838                 1.3670
 IR Inten    --     45.3555                 0.0467                17.5186

                     52                     53                     54
                      A                      A                      A
 Frequencies --   1191.6871              1194.4712              1201.3016
 Red. masses --     12.5558                12.6041                 2.3091
 Frc consts  --     10.5056                10.5953                 1.9633
 IR Inten    --     64.4850               424.5368                10.6702

                     55                     56                     57
                      A                      A                      A
 Frequencies --   1216.6523              1223.5714              1233.7935
 Red. masses --      8.7841                 6.2674                 1.7447
 Frc consts  --      7.6609                 5.5284                 1.5648
 IR Inten    --     98.5066               285.6166                 1.2484

                     58                     59                     60
                      A                      A                      A
 Frequencies --   1293.6156              1297.5225              1308.0744
 Red. masses --      3.3146                 3.0276                 2.0571
 Frc consts  --      3.2680                 3.0032                 2.0738
 IR Inten    --    221.7823               349.4496                54.4931

                     61                     62                     63
                      A                      A                      A
 Frequencies --   1315.2119              1355.8293              1375.2964
 Red. masses --      2.6306                 1.6822                 2.5966
 Frc consts  --      2.6810                 1.8219                 2.8936
 IR Inten    --     48.5089                11.0382                15.1670

                     64                     65                     66
                      A                      A                      A
 Frequencies --   1408.3613              1429.4518              1455.2638
 Red. masses --      5.0547                 1.2643                 3.5164
 Frc consts  --      5.9071                 1.5221                 4.3876
 IR Inten    --    196.3959                 1.1461                 7.6100

                     67                     68                     69
                      A                      A                      A
 Frequencies --   1473.6134              1498.8497              1503.0047
 Red. masses --      2.2808                 1.0516                 2.1424
 Frc consts  --      2.9181                 1.3920                 2.8514
 IR Inten    --      4.6922                 6.8729                22.1932

                     70                     71                     72
                      A                      A                      A
 Frequencies --   1506.3343              1522.6306              1621.8749
 Red. masses --      3.2999                 1.8288                 4.9296
 Frc consts  --      4.4116                 2.4980                 7.6401
 IR Inten    --      8.3214                 2.5631                12.9024

                     73                     74                     75
                      A                      A                      A
 Frequencies --   1653.2071              1665.8897              1667.6000
 Red. masses --      5.7130                 6.0074                 6.3039
 Frc consts  --      9.1996                 9.8227                10.3287
 IR Inten    --      1.0401                 5.7860                 2.3477

                     76                     77                     78
                      A                      A                      A
 Frequencies --   3045.8138              3104.3645              3131.9802
 Red. masses --      1.0372                 1.1011                 1.1016
 Frc consts  --      5.6691                 6.2518                 6.3666
 IR Inten    --     24.2074                14.4801                11.2303

                     79                     80                     81
                      A                      A                      A
 Frequencies --   3159.0391              3168.0537              3179.7311
 Red. masses --      1.0896                 1.0912                 1.0909
 Frc consts  --      6.4063                 6.4529                 6.4986
 IR Inten    --     38.1347                 9.6096                 5.6351

                     82                     83                     84
                      A                      A                      A
 Frequencies --   3220.4829              3224.1174              3239.9572
 Red. masses --      1.0906                 1.0910                 1.0916
 Frc consts  --      6.6645                 6.6819                 6.7513
 IR Inten    --      0.8400                 0.5051                 0.9979

 - Thermochemistry -
 -------------------
 Temperature   298.150 Kelvin.  Pressure   1.00000 Atm.
 Atom     1 has atomic number  9 and mass  18.99840

 Molecular mass:   305.06392 amu.
 Principal axes and moments of inertia in atomic units:
                                 1                 2                 3
     Eigenvalues --         5274.213709       9255.661736      13530.163143
           X                   0.999909         -0.011326         -0.007271
           Y                   0.011395          0.999889          0.009605
           Z                   0.007161         -0.009687          0.999927
 This molecule is an asymmetric top.
 Rotational symmetry number  1.
 Warning -- assumption of classical behavior for rotation
           may cause significant error
 Rotational temperatures (Kelvin)      0.01642     0.00936     0.00640
 Rotational constants (GHZ):           0.34218     0.19499     0.13339
 Zero-point vibrational energy     543351.7 (Joules/Mol)
                                  129.86418 (Kcal/Mol)
 Warning -- explicit consideration of  28 degrees of freedom as
           vibrations may cause significant error
 Vibrational temperatures:     20.23    23.51    46.35    58.33    86.97
          (Kelvin)             93.27   157.74   172.99   218.05   276.23
                              315.23   344.81   379.63   401.63   419.27
                              457.77   494.69   525.48   597.32   605.29
                              640.52   672.35   715.36   745.83   786.48
                              798.08   814.94   891.90   938.86   949.84
                              973.49   981.31  1028.40  1039.54  1059.64
                             1134.21  1239.95  1287.24  1318.15  1345.31
                             1358.79  1360.32  1369.74  1396.54  1468.58
                             1469.48  1512.50  1538.42  1592.56  1621.86
                             1626.58  1714.57  1718.58  1728.41  1750.49
                             1760.45  1775.15  1861.22  1866.85  1882.03
                             1892.30  1950.74  1978.74  2026.32  2056.66
                             2093.80  2120.20  2156.51  2162.49  2167.28
                             2190.73  2333.52  2378.60  2396.84  2399.30
                             4382.25  4466.49  4506.22  4545.15  4558.12
                             4574.92  4633.56  4638.79  4661.58

 Zero-point correction=                           0.206952 (Hartree/Particle)
 Thermal correction to Energy=                    0.225008
 Thermal correction to Enthalpy=                  0.225952
 Thermal correction to Gibbs Free Energy=         0.156445
 Sum of electronic and zero-point Energies=          -1192.602431
 Sum of electronic and thermal Energies=             -1192.584374
 Sum of electronic and thermal Enthalpies=           -1192.583430
 Sum of electronic and thermal Free Energies=        -1192.652937

                     E (Thermal)             CV                S
                      KCal/Mol        Cal/Mol-Kelvin    Cal/Mol-Kelvin
 Total                  141.195             66.650            146.289
 Electronic               0.000              0.000              0.000
 Translational            0.889              2.981             43.043
 Rotational               0.889              2.981             34.845
 Vibrational            139.417             60.688             68.401
 Vibration     1          0.593              1.986              7.334
 Vibration     2          0.593              1.986              7.035
 Vibration     3          0.594              1.983              5.688
 Vibration     4          0.594              1.981              5.232
 Vibration     5          0.597              1.973              4.442
 Vibration     6          0.597              1.971              4.305
 Vibration     7          0.606              1.941              3.275
 Vibration     8          0.609              1.932              3.097
 Vibration     9          0.619              1.901              2.653
 Vibration    10          0.634              1.851              2.209
 Vibration    11          0.647              1.812              1.967
 Vibration    12          0.657              1.780              1.805
 Vibration    13          0.670              1.739              1.636
 Vibration    14          0.679              1.712              1.539
 Vibration    15          0.687              1.690              1.466
 Vibration    16          0.705              1.639              1.320
 Vibration    17          0.723              1.588              1.194
 Vibration    18          0.738              1.544              1.100
 Vibration    19          0.779              1.437              0.909
 Vibration    20          0.783              1.425              0.890
 Vibration    21          0.805              1.372              0.810
 Vibration    22          0.825              1.323              0.745
 Vibration    23          0.853              1.256              0.665
 Vibration    24          0.873              1.209              0.614
 Vibration    25          0.902              1.147              0.551
 Vibration    26          0.910              1.129              0.535
 Vibration    27          0.922              1.104              0.511
 Vibration    28          0.980              0.990              0.417

 Optimization completed.
    -- Stationary point found.
 Normal termination of Gaussian 16 at Wed Aug 14 19:49:31 2024.

 ----------------------------------------------------------------------
 # M062X/def2tzvp int=(grid=ultrafine) pop=nbo7 polar prop=efg volume g
 uess=read geom=check
 ----------------------------------------------------------------------

 ---------
 pyrd7.xyz
 ---------
 Structure from the checkpoint file:  "pyrd7_conf-2.chk"
 Charge =  0 Multiplicity = 1

 SCF Done:  E(RM062X) =  -1192.80145622     A.U. after   12 cycles

  Exact polarizability:     237.049      -0.304     171.082      -1.679      12.242     109.073
 Approx polarizability:     266.129       2.034     226.075       0.791      17.568     153.153

 Summary of Natural Population Analysis:

                                     Natural Population
             Natural    ---------------------------------------------
  Atom No    Charge        Core      Valence    Rydberg      Total
 --------------------------------------------------------------------
    F  1   -0.32435      2.00000     7.31432    0.01004     9.32435
    C  2    0.98111      1.99999     2.97180    0.04710     5.01889
    F  3   -0.32218      2.00000     7.31205    0.01013     9.32218
    C  4   -0.13455      1.99999     4.11607    0.01850     6.13455
    C  5   -0.16043      1.99999     4.14461    0.01583     6.16043
    C  6   -0.13372      1.99999     4.11524    0.01848     6.13372
    C  7    0.98099      1.99999     2.97189    0.04713     5.01901
    F  8   -0.32248      2.00000     7.31252    0.00996     9.32248
    F  9   -0.32288      2.00000     7.31279    0.01010     9.32288
    F 10   -0.32351      2.00000     7.31344    0.01007     9.32351
    C 11   -0.15424      1.99999     4.13905    0.01519     6.15424
    C 12   -0.03355      1.99999     4.01558    0.01798     6.03355
    C 13   -0.09379      1.99999     4.07657    0.01723     6.09379
    C 14    0.04224      1.99999     3.93663    0.02114     5.95776
    N 15   -0.39929      1.99999     5.36773    0.03157     7.39929
    C 16    0.03616      1.99999     3.94235    0.02150     5.96384
    C 17   -0.05239      1.99999     4.03767    0.01472     6.05239
    C 18   -0.62910      1.99999     4.61979    0.00932     6.62910
    C 19   -0.15729      1.99999     4.14212    0.01518     6.15729
    C 20   -0.15593      1.99999     4.14087    0.01507     6.15593
    F 21   -0.32350      2.00000     7.31359    0.00991     9.32350
    H 22    0.25153      0.00000     0.74726    0.00122     0.74847
    H 23    0.23935      0.00000     0.75930    0.00135     0.76065
    H 24    0.19606      0.00000     0.80246    0.00148     0.80394
    H 25    0.19347      0.00000     0.80503    0.00150     0.80653
    H 26    0.22152      0.00000     0.77737    0.00111     0.77848
    H 27    0.22437      0.00000     0.77439    0.00123     0.77563
    H 28    0.22488      0.00000     0.77387    0.00126     0.77512
    H 29    0.21539      0.00000     0.78294    0.00167     0.78461
    H 30    0.23612      0.00000     0.76253    0.00135     0.76388
 ====================================================================
 * Total *  0.00000     41.99986   111.60184    0.39830   154.00000

 Normal termination of Gaussian 16 at Wed Aug 14 20:07:24 2024.
 Gaussian 16:  ES64L-G16RevC.01  3-Jul-2019

 --------------------------------------------------------------------
 # M062X/def2tzvp int=(grid=ultrafine) nmr=giao guess=read geom=check
 --------------------------------------------------------------------

 ---------
 pyrd7.xyz
 ---------
 Structure from the checkpoint file:  "pyrd7_conf-2.chk"
 Charge =  0 Multiplicity = 1

                         Standard orientation:
 ---------------------------------------------------------------------
 Center     Atomic      Atomic             Coordinates (Angstroms)
 Number     Number       Type             X           Y           Z
 ---------------------------------------------------------------------
      1          9           0        1.085493    3.499806   -0.916087
      2          6           0        1.843660    2.683801   -0.151704
      3          9           0        3.101896    2.717467   -0.637891
      4          6           0        1.293378    1.283366   -0.118418
      5          6           0        2.160330    0.202528    0.030233
      6          6           0        1.627026   -1.082213    0.115120
      7          6           0        2.550045   -2.266953    0.217890
      8          9           0        2.869765   -2.747925   -1.004650
      9          9           0        3.707961   -1.947302    0.833700
     10          9           0        1.984965   -3.281760    0.906652
     11          6           0        0.249862   -1.286461    0.057938
     12          6           0       -0.626774   -0.203395   -0.096124
     13          6           0       -2.088817   -0.415727   -0.163280
     14          6           0       -2.629853   -1.528536   -0.827836
     15          7           0       -3.936795   -1.775915   -0.916502
     16          6           0       -4.772916   -0.903993   -0.341880
     17          6           0       -4.364550    0.249324    0.337842
     18          6           0       -5.363330    1.190868    0.957625
     19          6           0       -2.990167    0.479695    0.421705
     20          6           0       -0.084152    1.085593   -0.186012
     21          9           0        1.881114    3.226396    1.086846
     22          1           0        3.230423    0.358394    0.079459
     23          1           0       -0.144043   -2.290637    0.160552
     24          1           0       -1.971013   -2.236025   -1.326972
     25          1           0       -5.834195   -1.133437   -0.423686
     26          1           0       -6.382373    0.810011    0.853814
     27          1           0       -5.163942    1.335224    2.024609
     28          1           0       -5.324652    2.177647    0.483286
     29          1           0       -2.618833    1.345128    0.964428
     30          1           0       -0.737006    1.937588   -0.335716
 ---------------------------------------------------------------------

 SCF Done:  E(RM062X) =  -1192.80145622     A.U. after    1 cycles

      1  F    Isotropic =   248.3903   Anisotropy =   139.0900

      2  C    Isotropic =    50.4406   Anisotropy =    13.4164

      3  F    Isotropic =   250.4396   Anisotropy =   136.3131

      4  C    Isotropic =    28.7474   Anisotropy =   190.0488

      5  C    Isotropic =    41.5619   Anisotropy =   216.3727

      6  C    Isotropic =    28.9552   Anisotropy =   191.2307

      7  C    Isotropic =    50.6444   Anisotropy =    13.2776

      8  F    Isotropic =   223.1987   Anisotropy =   150.4736

      9  F    Isotropic =   249.6565   Anisotropy =   137.2228

     10  F    Isotropic =   248.4495   Anisotropy =   138.4565

     11  C    Isotropic =    34.9033   Anisotropy =   206.4861

     12  C    Isotropic =    19.6174   Anisotropy =   223.8304

     13  C    Isotropic =    29.1742   Anisotropy =   208.1600

     14  C    Isotropic =    15.0473   Anisotropy =   187.7671

     15  N    Isotropic =  -157.4063   Anisotropy =   676.4178

     16  C    Isotropic =     9.7188   Anisotropy =   182.6376

     17  C    Isotropic =    29.2123   Anisotropy =   223.0219

     18  C    Isotropic =   166.6719   Anisotropy =    35.8375

     19  C    Isotropic =    27.1767   Anisotropy =   203.7659

     20  C    Isotropic =    34.9646   Anisotropy =   206.7048

     21  F    Isotropic =   222.7275   Anisotropy =   151.2971

     22  H    Isotropic =    23.1152   Anisotropy =    12.5053

     23  H    Isotropic =    22.8765   Anisotropy =    12.2463

     24  H    Isotropic =    22.1475   Anisotropy =    10.5455

     25  H    Isotropic =    22.4107   Anisotropy =     8.6809

     26  H    Isotropic =    29.5285   Anisotropy =     8.5984

     27  H    Isotropic =    29.3126   Anisotropy =     7.4839

     28  H    Isotropic =    29.2655   Anisotropy =     8.1466

     29  H    Isotropic =    23.3233   Anisotropy =    12.5547

     30  H    Isotropic =    23.0397   Anisotropy =    12.8352

 The electronic state is 1-A.
 Alpha  occ. eigenvalues --  -25.29203 -25.29201 -25.29085 -25.29083 -25.28833
 Alpha  occ. eigenvalues --  -25.28706 -14.76390 -10.81405 -10.81298 -10.59957
 Alpha  occ. eigenvalues --  -10.59919 -10.59634 -10.59205 -10.59167 -10.58959
 Alpha  occ. eigenvalues --  -10.58903 -10.58842 -10.58158 -10.57671 -10.57574
 Alpha  occ. eigenvalues --  -10.55462  -1.47231  -1.47117  -1.38466  -1.38347
 Alpha  occ. eigenvalues --   -1.38074  -1.37961  -1.06821  -1.01922  -0.94645
 Alpha  occ. eigenvalues --   -0.93004  -0.92130  -0.86927  -0.83114  -0.82362
 Alpha  occ. eigenvalues --   -0.80710  -0.76009  -0.75160  -0.73018  -0.71531
 Alpha  occ. eigenvalues --   -0.70136  -0.70055  -0.69930  -0.69752  -0.66571
 Alpha  occ. eigenvalues --   -0.63770  -0.61806  -0.60470  -0.59664  -0.58552
 Alpha  occ. eigenvalues --   -0.58283  -0.58027  -0.57972  -0.55993  -0.55389
 Alpha  occ. eigenvalues --   -0.54569  -0.54353  -0.54034  -0.53468  -0.52605
 Alpha  occ. eigenvalues --   -0.52480  -0.51570  -0.50788  -0.50396  -0.49781
 Alpha  occ. eigenvalues --   -0.48802  -0.48528  -0.47222  -0.46930  -0.46216
 Alpha  occ. eigenvalues --   -0.44839  -0.43230  -0.38122  -0.35618  -0.34383
 Alpha  occ. eigenvalues --   -0.33786  -0.31093
 Alpha virt. eigenvalues --   -0.04347  -0.03438  -0.01324   0.01867   0.05817
 Alpha virt. eigenvalues --    0.08270   0.08957   0.10029   0.10442   0.10970
 Alpha virt. eigenvalues --    0.11996   0.12497   0.12918   0.13717   0.14370

 Mulliken charges:
               1
     1  F   -0.179484
     2  C    0.502412
     3  F   -0.176876
     4  C   -0.013668
     5  C   -0.193093
     6  C   -0.014396
     7  C    0.503147
     8  F   -0.172667
     9  F   -0.177719
    10  F   -0.178513
    11  C   -0.246623
    12  C    0.136501
    13  C    0.056562
    14  C   -0.107891
    15  N   -0.214299
    16  C   -0.065994
    17  C    0.051979
    18  C   -0.480658
    19  C   -0.176500
    20  C   -0.244069
    21  F   -0.173892
    22  H    0.194052
    23  H    0.208927
    24  H    0.163857
    25  H    0.143742
    26  H    0.146730
    27  H    0.162628
    28  H    0.164590
    29  H    0.179487
    30  H    0.201727
 Sum of Mulliken charges =  -0.00000

 Dipole moment (field-independent basis, Debye):
    X=             -2.8584    Y=              1.5860    Z=              1.1228  Tot=              3.4564
 Quadrupole moment (field-independent basis, Debye-Ang):
   XX=           -113.4339   YY=           -128.4154   ZZ=           -121.2701
   XY=             -8.3764   XZ=             -6.1136   YZ=              0.1152

 Normal termination of Gaussian 16 at Wed Aug 14 20:14:44 2024.
