 Gaussian 16, Revision C.01,

 ----------------------------------------------------------------------
 # B3LYP/6-31G(d,p) symmetry=loose empiricaldispersion=GD3BJ int=(grid=
 ultrafine) opt freq=noraman
 ----------------------------------------------------------------------

 ---------
 pyrd3.xyz
 ---------
 Symbolic Z-matrix:
 Charge =  0 Multiplicity = 1

 SCF Done:  E(RB3LYP) =  -2858.74510625     A.U. after   14 cycles
 SCF Done:  E(RB3LYP) =  -2858.74615224     A.U. after   12 cycles
 SCF Done:  E(RB3LYP) =  -2858.74622085     A.U. after    9 cycles
 SCF Done:  E(RB3LYP) =  -2858.74622421     A.U. after    9 cycles
 Optimization completed.
    -- Stationary point found.
 Normal termination of Gaussian 16 at Wed Aug 14 18:55:15 2024.

 ----------------------------------------------------------------------
 #N Geom=AllCheck Guess=TCheck SCRF=Check GenChk RB3LYP/6-31G(d,p) Freq
 ----------------------------------------------------------------------

 Structure from the checkpoint file:  "pyrd3_conf-1.chk"
 ---------
 pyrd3.xyz
 ---------
 Charge =  0 Multiplicity = 1

 SCF Done:  E(RB3LYP) =  -2858.74622421     A.U. after    1 cycles

                      1                      2                      3
                      A                      A                      A
 Frequencies --     54.2654               162.3155               201.6123
 Red. masses --      1.0355                 5.2201                 4.6380
 Frc consts  --      0.0018                 0.0810                 0.1111
 IR Inten    --      0.4060                 0.3682                 0.4355

                      4                      5                      6
                      A                      A                      A
 Frequencies --    207.5089               309.3272               392.2030
 Red. masses --      3.5621                11.6001                 2.9290
 Frc consts  --      0.0904                 0.6540                 0.2655
 IR Inten    --      3.3444                 1.8447                 2.5293

                      7                      8                      9
                      A                      A                      A
 Frequencies --    449.0502               553.0689               555.7127
 Red. masses --      2.7667                 4.2981                 5.0426
 Frc consts  --      0.3287                 0.7746                 0.9175
 IR Inten    --      7.4856                 2.0811                 3.1307

                     10                     11                     12
                      A                      A                      A
 Frequencies --    695.1098               742.3866               846.6304
 Red. masses --      7.6522                 3.5754                 1.2969
 Frc consts  --      2.1784                 1.1610                 0.5477
 IR Inten    --     32.1094                 0.0327                19.2115

                     13                     14                     15
                      A                      A                      A
 Frequencies --    867.8544               894.7544               983.0522
 Red. masses --      5.6786                 1.3038                 1.3704
 Frc consts  --      2.5199                 0.6150                 0.7803
 IR Inten    --     30.2451                 2.6086                 0.3737

                     16                     17                     18
                      A                      A                      A
 Frequencies --    997.6893              1024.4949              1065.3623
 Red. masses --      2.9231                 2.0333                 1.5978
 Frc consts  --      1.7143                 1.2574                 1.0685
 IR Inten    --      0.8968                 0.6556                 6.4704

                     19                     20                     21
                      A                      A                      A
 Frequencies --   1117.7080              1135.5072              1257.3623
 Red. masses --      2.1755                 1.3928                 2.3129
 Frc consts  --      1.6013                 1.0581                 2.1545
 IR Inten    --     14.1555                 0.3839                 4.9133

                     22                     23                     24
                      A                      A                      A
 Frequencies --   1296.1426              1328.2092              1418.3302
 Red. masses --      7.6176                 1.4952                 1.8227
 Frc consts  --      7.5400                 1.5541                 2.1603
 IR Inten    --      0.5960                 3.7107                10.5668

                     25                     26                     27
                      A                      A                      A
 Frequencies --   1425.7006              1489.0690              1499.9041
 Red. masses --      1.6595                 1.0447                 1.2856
 Frc consts  --      1.9874                 1.3648                 1.7041
 IR Inten    --     12.4238                 5.3822                24.4266

                     28                     29                     30
                      A                      A                      A
 Frequencies --   1514.7925              1607.9889              1628.8207
 Red. masses --      1.8789                 5.9921                 6.9486
 Frc consts  --      2.5401                 9.1283                10.8616
 IR Inten    --     32.2827                97.9354               123.6111

                     31                     32                     33
                      A                      A                      A
 Frequencies --   3055.4293              3119.8954              3143.0364
 Red. masses --      1.0359                 1.1009                 1.1035
 Frc consts  --      5.6977                 6.3137                 6.4230
 IR Inten    --     14.0007                10.1390                14.9466

                     34                     35                     36
                      A                      A                      A
 Frequencies --   3166.1386              3222.7742              3232.5955
 Red. masses --      1.0901                 1.0925                 1.0942
 Frc consts  --      6.4385                 6.6854                 6.7366
 IR Inten    --     24.4523                 1.5525                 1.9116

 - Thermochemistry -
 -------------------
 Temperature   298.150 Kelvin.  Pressure   1.00000 Atm.
 Atom     1 has atomic number 35 and mass  78.91834

 Molecular mass:   170.96836 amu.
 Principal axes and moments of inertia in atomic units:
                                 1                 2                 3
     Eigenvalues --          522.772364       2407.143449       2918.769852
           X                   0.999381         -0.035173          0.000000
           Y                   0.035173          0.999381         -0.000000
           Z                  -0.000000          0.000000          1.000000
 This molecule is an asymmetric top.
 Rotational symmetry number  1.
 Warning -- assumption of classical behavior for rotation
           may cause significant error
 Rotational temperatures (Kelvin)      0.16568     0.03598     0.02967
 Rotational constants (GHZ):           3.45225     0.74974     0.61832
 Zero-point vibrational energy     279099.6 (Joules/Mol)
                                   66.70640 (Kcal/Mol)
 Warning -- explicit consideration of   9 degrees of freedom as
           vibrations may cause significant error
 Vibrational temperatures:     78.08   233.54   290.08   298.56   445.05
          (Kelvin)            564.29   646.08   795.74   799.55  1000.11
                             1068.13  1218.11  1248.65  1287.35  1414.39
                             1435.45  1474.02  1532.82  1608.13  1633.74
                             1809.06  1864.86  1911.00  2040.66  2051.27
                             2142.44  2158.03  2179.45  2313.54  2343.51
                             4396.08  4488.83  4522.13  4555.37  4636.85
                             4650.98

 Zero-point correction=                           0.106303 (Hartree/Particle)
 Thermal correction to Energy=                    0.113701
 Thermal correction to Enthalpy=                  0.114645
 Thermal correction to Gibbs Free Energy=         0.072707
 Sum of electronic and zero-point Energies=          -2858.639921
 Sum of electronic and thermal Energies=             -2858.632523
 Sum of electronic and thermal Enthalpies=           -2858.631579
 Sum of electronic and thermal Free Energies=        -2858.673517

                     E (Thermal)             CV                S
                      KCal/Mol        Cal/Mol-Kelvin    Cal/Mol-Kelvin
 Total                   71.349             26.406             88.267
 Electronic               0.000              0.000              0.000
 Translational            0.889              2.981             41.317
 Rotational               0.889              2.981             29.686
 Vibrational             69.571             20.444             17.264
 Vibration     1          0.596              1.976              4.656
 Vibration     2          0.622              1.889              2.523
 Vibration     3          0.638              1.838              2.118
 Vibration     4          0.641              1.829              2.065
 Vibration     5          0.699              1.656              1.366
 Vibration     6          0.760              1.487              0.992
 Vibration     7          0.808              1.363              0.799
 Vibration     8          0.908              1.133              0.538
 Vibration     9          0.911              1.127              0.532

 Optimization completed.
    -- Stationary point found.
 Normal termination of Gaussian 16 at Wed Aug 14 18:55:51 2024.

 ----------------------------------------------------------------------
 # M062X/def2tzvp int=(grid=ultrafine) pop=nbo7 polar prop=efg volume g
 uess=read geom=check
 ----------------------------------------------------------------------

 ---------
 pyrd3.xyz
 ---------
 Structure from the checkpoint file:  "pyrd3_conf-1.chk"
 Charge =  0 Multiplicity = 1

 SCF Done:  E(RM062X) =  -2861.17636312     A.U. after   12 cycles

  Exact polarizability:     128.159      -1.014      98.762       0.000      -0.000      56.998
 Approx polarizability:     153.754       2.737     131.701       0.000      -0.000      78.853

 Summary of Natural Population Analysis:

                                     Natural Population
             Natural    ---------------------------------------------
  Atom No    Charge        Core      Valence    Rydberg      Total
 --------------------------------------------------------------------
   Br  1    0.06608     27.99996     6.92234    0.01162    34.93392
    C  2   -0.04334      1.99999     4.01759    0.02576     6.04334
    C  3   -0.28734      1.99999     4.26829    0.01906     6.28734
    C  4    0.22601      1.99999     3.75463    0.01937     5.77399
    C  5   -0.63713      1.99999     4.62741    0.00973     6.63713
    N  6   -0.42868      1.99999     5.39732    0.03136     7.42868
    C  7    0.05589      1.99999     3.92224    0.02188     5.94411
    C  8   -0.29592      1.99999     4.27755    0.01838     6.29592
    H  9    0.23217      0.00000     0.76626    0.00157     0.76783
    H 10    0.23275      0.00000     0.76608    0.00118     0.76725
    H 11    0.21135      0.00000     0.78767    0.00098     0.78865
    H 12    0.23275      0.00000     0.76608    0.00118     0.76725
    H 13    0.19928      0.00000     0.79925    0.00147     0.80072
    H 14    0.23613      0.00000     0.76253    0.00134     0.76387
 ====================================================================
 * Total *  0.00000     41.99991    41.83523    0.16487    84.00000

 Normal termination of Gaussian 16 at Wed Aug 14 18:58:02 2024.
 Gaussian 16:  ES64L-G16RevC.01  3-Jul-2019

 --------------------------------------------------------------------
 # M062X/def2tzvp int=(grid=ultrafine) nmr=giao guess=read geom=check
 --------------------------------------------------------------------

 ---------
 pyrd3.xyz
 ---------
 Structure from the checkpoint file:  "pyrd3_conf-1.chk"
 Charge =  0 Multiplicity = 1

                         Standard orientation:
 ---------------------------------------------------------------------
 Center     Atomic      Atomic             Coordinates (Angstroms)
 Number     Number       Type             X           Y           Z
 ---------------------------------------------------------------------
      1         35           0       -2.095696   -0.255755    0.000001
      2          6           0       -0.244599    0.199131   -0.000003
      3          6           0        0.714478   -0.806965   -0.000005
      4          6           0        2.064947   -0.435447   -0.000005
      5          6           0        3.157557   -1.471426    0.000004
      6          7           0        2.458482    0.849454   -0.000002
      7          6           0        1.513571    1.792966    0.000001
      8          6           0        0.142365    1.533840    0.000002
      9          1           0        0.424399   -1.850602   -0.000007
     10          1           0        3.795654   -1.344780    0.879958
     11          1           0        2.754882   -2.486780   -0.000076
     12          1           0        3.795760   -1.344677   -0.879858
     13          1           0        1.864075    2.823346    0.000003
     14          1           0       -0.584701    2.336132    0.000005
 ---------------------------------------------------------------------

 SCF Done:  E(RM062X) =  -2861.17636312     A.U. after    1 cycles

      1  Br   Isotropic =  2046.0692   Anisotropy =  1290.6079

      2  C    Isotropic =    10.7467   Anisotropy =   174.0429

      3  C    Isotropic =    38.6499   Anisotropy =   154.7886

      4  C    Isotropic =    -2.6580   Anisotropy =   215.9434

      5  C    Isotropic =   159.0607   Anisotropy =    43.3764

      6  N    Isotropic =  -142.7935   Anisotropy =   644.8956

      7  C    Isotropic =    11.0297   Anisotropy =   195.8809

      8  C    Isotropic =    41.1364   Anisotropy =   172.2937

      9  H    Isotropic =    23.9695   Anisotropy =    12.8472

     10  H    Isotropic =    29.1490   Anisotropy =     7.5714

     11  H    Isotropic =    29.6590   Anisotropy =     6.0870

     12  H    Isotropic =    29.1489   Anisotropy =     7.5715

     13  H    Isotropic =    22.5690   Anisotropy =     7.4665

     14  H    Isotropic =    24.0358   Anisotropy =    10.4306

 The electronic state is 1-A.
 Alpha  occ. eigenvalues -- -485.38500 -63.36979 -57.18926 -57.18688 -57.18678
 Alpha  occ. eigenvalues --  -14.75547 -10.62246 -10.59855 -10.58991 -10.56413
 Alpha  occ. eigenvalues --  -10.56408 -10.54026  -9.03625  -6.86039  -6.85158
 Alpha  occ. eigenvalues --   -6.85124  -2.89417  -2.89100  -2.89064  -2.88243
 Alpha  occ. eigenvalues --   -2.88242  -1.06520  -0.94933  -0.89381  -0.85514
 Alpha  occ. eigenvalues --   -0.80485  -0.72459  -0.68169  -0.59212  -0.57915
 Alpha  occ. eigenvalues --   -0.54137  -0.51400  -0.49844  -0.47242  -0.46367
 Alpha  occ. eigenvalues --   -0.44978  -0.43785  -0.40280  -0.35994  -0.33572
 Alpha  occ. eigenvalues --   -0.32665  -0.32162
 Alpha virt. eigenvalues --   -0.01138   0.00396   0.02728   0.07918   0.10077
 Alpha virt. eigenvalues --    0.10975   0.12772   0.13268   0.14374   0.16540
 Alpha virt. eigenvalues --    0.16827   0.17316   0.19497   0.20757   0.21674

 Mulliken charges:
               1
     1  Br  -0.085817
     2  C    0.054703
     3  C   -0.199512
     4  C    0.196395
     5  C   -0.440919
     6  N   -0.241978
     7  C   -0.065159
     8  C   -0.147315
     9  H    0.167583
    10  H    0.158310
    11  H    0.134894
    12  H    0.158311
    13  H    0.147184
    14  H    0.163319
 Sum of Mulliken charges =   0.00000

 Dipole moment (field-independent basis, Debye):
    X=             -0.0344    Y=             -0.4166    Z=              0.0000  Tot=              0.4180
 Quadrupole moment (field-independent basis, Debye-Ang):
   XX=            -63.1443   YY=            -53.3259   ZZ=            -61.8118
   XY=             -4.1013   XZ=              0.0000   YZ=              0.0000

 Normal termination of Gaussian 16 at Wed Aug 14 18:58:47 2024.
