 Gaussian 16, Revision C.01,

 ----------------------------------------------------------------------
 # B3LYP/6-31G(d,p) symmetry=loose empiricaldispersion=GD3BJ int=(grid=
 ultrafine) opt freq=noraman
 ----------------------------------------------------------------------

 ----------
 pyrmd2.xyz
 ----------
 Symbolic Z-matrix:
 Charge =  0 Multiplicity = 1

 SCF Done:  E(RB3LYP) =  -1453.95055045     A.U. after   14 cycles
 SCF Done:  E(RB3LYP) =  -1453.95537766     A.U. after   12 cycles
 SCF Done:  E(RB3LYP) =  -1453.95592817     A.U. after   11 cycles
 SCF Done:  E(RB3LYP) =  -1453.95597064     A.U. after   10 cycles
 SCF Done:  E(RB3LYP) =  -1453.95597083     A.U. after    8 cycles
 SCF Done:  E(RB3LYP) =  -1453.95597417     A.U. after    8 cycles
 SCF Done:  E(RB3LYP) =  -1453.95597422     A.U. after    7 cycles
 Optimization completed.
    -- Stationary point found.
 Normal termination of Gaussian 16 at Wed Aug 14 20:22:13 2024.

 ----------------------------------------------------------------------
 #N Geom=AllCheck Guess=TCheck SCRF=Check GenChk RB3LYP/6-31G(d,p) Freq
 ----------------------------------------------------------------------

 Structure from the checkpoint file:  "pyrmd2_conf-1.chk"
 ----------
 pyrmd2.xyz
 ----------
 Charge =  0 Multiplicity = 1

 SCF Done:  E(RB3LYP) =  -1453.95597422     A.U. after    1 cycles

                      1                      2                      3
                      A                      A                      A
 Frequencies --     13.9076                16.4443                42.9701
 Red. masses --      5.0120                 5.3969                 7.1686
 Frc consts  --      0.0006                 0.0009                 0.0078
 IR Inten    --      0.0313                 0.0212                 0.0995

                      4                      5                      6
                      A                      A                      A
 Frequencies --    137.6571               166.8604               195.3174
 Red. masses --      8.5232                 5.1956                 6.0206
 Frc consts  --      0.0952                 0.0852                 0.1353
 IR Inten    --      1.6241                 3.1951                 0.4365

                      7                      8                      9
                      A                      A                      A
 Frequencies --    196.4064               204.1537               254.4090
 Red. masses --     13.7326                13.7697                 6.2535
 Frc consts  --      0.3121                 0.3381                 0.2385
 IR Inten    --      0.9164                 0.1569                 1.8256

                     10                     11                     12
                      A                      A                      A
 Frequencies --    353.4769               403.7530               414.9290
 Red. masses --      2.4136                17.8812                 2.9557
 Frc consts  --      0.1777                 1.7174                 0.2998
 IR Inten    --      0.2778                 5.3458                 0.0116

                     13                     14                     15
                      A                      A                      A
 Frequencies --    434.1723               479.3348               481.4925
 Red. masses --     13.3380                 3.4121                 3.9288
 Frc consts  --      1.4814                 0.4619                 0.5367
 IR Inten    --      5.6678                 0.1680                 2.2141

                     16                     17                     18
                      A                      A                      A
 Frequencies --    535.0152               605.9734               613.1173
 Red. masses --      5.3951                 4.7114                12.3852
 Frc consts  --      0.9099                 1.0193                 2.7431
 IR Inten    --      4.3489                25.2768                 0.0708

                     19                     20                     21
                      A                      A                      A
 Frequencies --    636.5047               680.9317               714.0421
 Red. masses --      6.2242                 4.6750                 1.7116
 Frc consts  --      1.4857                 1.2771                 0.5142
 IR Inten    --      0.0360                13.4000                34.3349

                     22                     23                     24
                      A                      A                      A
 Frequencies --    768.1827               793.2195               825.4583
 Red. masses --      2.1804                 5.3211                10.8939
 Frc consts  --      0.7581                 1.9726                 4.3734
 IR Inten    --     11.5624                 2.5440               161.7729

                     25                     26                     27
                      A                      A                      A
 Frequencies --    854.2833               857.3255               863.7541
 Red. masses --      3.5841                 1.2505                 1.4752
 Frc consts  --      1.5411                 0.5415                 0.6484
 IR Inten    --      6.9244                 0.1353                20.6050

                     28                     29                     30
                      A                      A                      A
 Frequencies --    921.1881               945.5618               953.4871
 Red. masses --      1.9545                 3.2924                 1.8928
 Frc consts  --      0.9772                 1.7344                 1.0139
 IR Inten    --      9.2393                25.1001                 6.7194

                     31                     32                     33
                      A                      A                      A
 Frequencies --    971.3077               998.5118              1004.9201
 Red. masses --      1.3568                 1.2876                 7.8234
 Frc consts  --      0.7542                 0.7564                 4.6549
 IR Inten    --      0.0945                 0.2154                 0.4495

                     34                     35                     36
                      A                      A                      A
 Frequencies --   1021.2394              1058.4899              1102.1407
 Red. masses --      6.2690                 2.2210                 1.5880
 Frc consts  --      3.8521                 1.4661                 1.1365
 IR Inten    --      0.8928                 4.0328                24.1742

                     37                     38                     39
                      A                      A                      A
 Frequencies --   1127.9770              1187.9365              1190.8122
 Red. masses --      1.4622                 1.1665                 1.2210
 Frc consts  --      1.0961                 0.9699                 1.0201
 IR Inten    --     13.0939                 5.2903                11.8566

                     40                     41                     42
                      A                      A                      A
 Frequencies --   1210.0053              1220.5567              1265.8138
 Red. masses --      1.1391                 2.7898                 7.0937
 Frc consts  --      0.9826                 2.4488                 6.6967
 IR Inten    --      1.7582                 9.1292               102.6743

                     43                     44                     45
                      A                      A                      A
 Frequencies --   1272.9666              1325.7424              1360.1384
 Red. masses --      5.6613                 1.5798                 3.3800
 Frc consts  --      5.4051                 1.6360                 3.6841
 IR Inten    --      1.2347                 5.9018                 0.3629

                     46                     47                     48
                      A                      A                      A
 Frequencies --   1365.0096              1410.5233              1421.7683
 Red. masses --      1.5439                 7.7184                 2.8960
 Frc consts  --      1.6949                 9.0477                 3.4492
 IR Inten    --      0.7947               119.2380                80.1211

                     49                     50                     51
                      A                      A                      A
 Frequencies --   1488.9362              1499.2205              1540.8776
 Red. masses --      1.1304                 2.2374                 2.2400
 Frc consts  --      1.4765                 2.9630                 3.1335
 IR Inten    --      6.2313                 1.9055                16.6177

                     52                     53                     54
                      A                      A                      A
 Frequencies --   1573.4787              1602.1235              1645.9689
 Red. masses --      7.5183                11.3993                 5.6800
 Frc consts  --     10.9670                17.2393                 9.0665
 IR Inten    --    377.1690               365.9658                 0.4140

                     55                     56                     57
                      A                      A                      A
 Frequencies --   1663.1664              3086.2906              3144.8966
 Red. masses --      5.6682                 1.0586                 1.1073
 Frc consts  --      9.2377                 5.9407                 6.4526
 IR Inten    --      1.7571                11.1030                 3.1164

                     58                     59                     60
                      A                      A                      A
 Frequencies --   3179.3699              3185.0483              3193.3501
 Red. masses --      1.0848                 1.0875                 1.0914
 Frc consts  --      6.4606                 6.5001                 6.5571
 IR Inten    --      1.9259                 0.3328                13.6291

                     61                     62                     63
                      A                      A                      A
 Frequencies --   3200.1311              3209.3708              3263.2675
 Red. masses --      1.0950                 1.0987                 1.0951
 Frc consts  --      6.6070                 6.6677                 6.8705
 IR Inten    --     28.4711                16.2897                 2.2966

 - Thermochemistry -
 -------------------
 Temperature   298.150 Kelvin.  Pressure   1.00000 Atm.
 Atom     1 has atomic number 17 and mass  34.96885

 Molecular mass:   238.00645 amu.
 Principal axes and moments of inertia in atomic units:
                                 1                 2                 3
     Eigenvalues --         2895.812778       5967.273379       7906.386600
           X                   0.999979          0.000012         -0.006454
           Y                  -0.000012          1.000000          0.000046
           Z                   0.006454         -0.000046          0.999979
 This molecule is an asymmetric top.
 Rotational symmetry number  1.
 Warning -- assumption of classical behavior for rotation
           may cause significant error
 Rotational temperatures (Kelvin)      0.02991     0.01451     0.01095
 Rotational constants (GHZ):           0.62322     0.30244     0.22826
 Zero-point vibrational energy     438758.5 (Joules/Mol)
                                  104.86579 (Kcal/Mol)
 Warning -- explicit consideration of  18 degrees of freedom as
           vibrations may cause significant error
 Vibrational temperatures:     20.01    23.66    61.82   198.06   240.07
          (Kelvin)            281.02   282.59   293.73   366.04   508.57
                              580.91   596.99   624.68   689.66   692.76
                              769.77   871.86   882.14   915.79   979.71
                             1027.35  1105.24  1141.27  1187.65  1229.12
                             1233.50  1242.75  1325.38  1360.45  1371.86
                             1397.50  1436.64  1445.86  1469.34  1522.93
                             1585.73  1622.91  1709.18  1713.31  1740.93
                             1756.11  1821.22  1831.51  1907.45  1956.94
                             1963.94  2029.43  2045.61  2142.25  2157.04
                             2216.98  2263.88  2305.10  2368.18  2392.93
                             4440.48  4524.80  4574.40  4582.57  4594.52
                             4604.27  4617.57  4695.11

 Zero-point correction=                           0.167114 (Hartree/Particle)
 Thermal correction to Energy=                    0.179609
 Thermal correction to Enthalpy=                  0.180554
 Thermal correction to Gibbs Free Energy=         0.124159
 Sum of electronic and zero-point Energies=          -1453.788860
 Sum of electronic and thermal Energies=             -1453.776365
 Sum of electronic and thermal Enthalpies=           -1453.775421
 Sum of electronic and thermal Free Energies=        -1453.831815

                     E (Thermal)             CV                S
                      KCal/Mol        Cal/Mol-Kelvin    Cal/Mol-Kelvin
 Total                  112.707             46.763            118.692
 Electronic               0.000              0.000              0.000
 Translational            0.889              2.981             42.303
 Rotational               0.889              2.981             33.279
 Vibrational            110.929             40.801             43.110
 Vibration     1          0.593              1.986              7.356
 Vibration     2          0.593              1.986              7.023
 Vibration     3          0.595              1.980              5.117
 Vibration     4          0.614              1.916              2.836
 Vibration     5          0.624              1.883              2.471
 Vibration     6          0.636              1.846              2.177
 Vibration     7          0.636              1.845              2.167
 Vibration     8          0.640              1.834              2.095
 Vibration     9          0.665              1.755              1.700
 Vibration    10          0.730              1.568              1.151
 Vibration    11          0.769              1.462              0.949
 Vibration    12          0.778              1.438              0.909
 Vibration    13          0.795              1.396              0.845
 Vibration    14          0.836              1.296              0.712
 Vibration    15          0.838              1.291              0.706
 Vibration    16          0.890              1.173              0.576
 Vibration    17          0.965              1.019              0.439
 Vibration    18          0.972              1.004              0.428

                           ! Non-Optimized Parameters !
 Normal termination of Gaussian 16 at Wed Aug 14 20:24:14 2024.

 ----------------------------------------------------------------------
 # M062X/def2tzvp int=(grid=ultrafine) pop=nbo7 polar prop=efg volume g
 uess=read geom=check
 ----------------------------------------------------------------------

 ----------
 pyrmd2.xyz
 ----------
 Structure from the checkpoint file:  "pyrmd2_conf-1.chk"
 Charge =  0 Multiplicity = 1

 SCF Done:  E(RM062X) =  -1453.87323502     A.U. after   12 cycles

  Exact polarizability:     180.525       0.035     184.613      -3.827       0.024     117.446
 Approx polarizability:     203.800       0.059     252.024      -2.197       0.037     167.957

 Summary of Natural Population Analysis:

                                     Natural Population
             Natural    ---------------------------------------------
  Atom No    Charge        Core      Valence    Rydberg      Total
 --------------------------------------------------------------------
   Cl  1    0.02496      9.99998     6.95848    0.01658    16.97504
    C  2    0.23393      1.99999     3.73529    0.03079     5.76607
    C  3   -0.33662      1.99999     4.31697    0.01966     6.33662
    C  4    0.23392      1.99999     3.73529    0.03079     5.76608
   Cl  5    0.02495      9.99998     6.95849    0.01658    16.97505
    N  6   -0.46909      1.99999     5.43394    0.03516     7.46909
    C  7    0.45993      1.99999     3.51550    0.02458     5.54007
    C  8   -0.45935      1.99999     4.44555    0.01381     6.45935
    C  9   -0.01553      1.99999     3.99893    0.01662     6.01553
    C 10   -0.20935      1.99999     4.19300    0.01636     6.20935
    C 11   -0.20482      1.99999     4.18840    0.01643     6.20482
    C 12   -0.21478      1.99999     4.19840    0.01639     6.21478
    C 13   -0.20482      1.99999     4.18840    0.01643     6.20482
    C 14   -0.20938      1.99999     4.19303    0.01636     6.20938
    N 15   -0.46905      1.99999     5.43389    0.03516     7.46905
    H 16    0.25601      0.00000     0.74279    0.00120     0.74399
    H 17    0.23669      0.00000     0.76181    0.00150     0.76331
    H 18    0.23668      0.00000     0.76183    0.00150     0.76332
    H 19    0.21957      0.00000     0.77901    0.00142     0.78043
    H 20    0.21564      0.00000     0.78318    0.00118     0.78436
    H 21    0.21526      0.00000     0.78363    0.00111     0.78474
    H 22    0.21564      0.00000     0.78318    0.00118     0.78436
    H 23    0.21962      0.00000     0.77896    0.00142     0.78038
 ====================================================================
 * Total *  0.00000     45.99986    75.66794    0.33220   122.00000

 Normal termination of Gaussian 16 at Wed Aug 14 20:32:47 2024.
 Gaussian 16:  ES64L-G16RevC.01  3-Jul-2019

 --------------------------------------------------------------------
 # M062X/def2tzvp int=(grid=ultrafine) nmr=giao guess=read geom=check
 --------------------------------------------------------------------

 ----------
 pyrmd2.xyz
 ----------
 Structure from the checkpoint file:  "pyrmd2_conf-1.chk"
 Charge =  0 Multiplicity = 1

                         Standard orientation:
 ---------------------------------------------------------------------
 Center     Atomic      Atomic             Coordinates (Angstroms)
 Number     Number       Type             X           Y           Z
 ---------------------------------------------------------------------
      1         17           0       -2.600819    2.711921   -0.465284
      2          6           0       -1.900110    1.168605   -0.029388
      3          6           0       -2.540675    0.000175   -0.435654
      4          6           0       -1.900351   -1.168184   -0.028834
      5         17           0       -2.601336   -2.711577   -0.464011
      6          7           0       -0.782354   -1.192278    0.676830
      7          6           0       -0.259489    0.000293    1.002318
      8          6           0        1.056022    0.000338    1.737553
      9          6           0        2.199702   -0.000063    0.737722
     10          6           0        2.713342    1.206176    0.250755
     11          6           0        3.733708    1.206285   -0.699598
     12          6           0        4.245956   -0.000789   -1.176991
     13          6           0        3.730820   -1.207505   -0.701760
     14          6           0        2.710474   -1.206670    0.248592
     15          7           0       -0.782100    1.192815    0.676236
     16          1           0       -3.454549    0.000132   -1.011843
     17          1           0        1.102262   -0.890040    2.368148
     18          1           0        1.102489    0.891043    2.367658
     19          1           0        2.306149    2.144668    0.615202
     20          1           0        4.128575    2.148783   -1.066613
     21          1           0        5.042049   -0.001079   -1.915157
     22          1           0        4.123442   -2.150278   -1.070471
     23          1           0        2.300994   -2.144824    0.611342
 ---------------------------------------------------------------------

 SCF Done:  E(RM062X) =  -1453.87323502     A.U. after    1 cycles

      1  Cl   Isotropic =   574.2025   Anisotropy =   615.7439

      2  C    Isotropic =    -8.6194   Anisotropy =   147.9347

      3  C    Isotropic =    47.4817   Anisotropy =   141.1206

      4  C    Isotropic =    -8.6191   Anisotropy =   147.9369

      5  Cl   Isotropic =   574.2095   Anisotropy =   615.7390

      6  N    Isotropic =   -94.8816   Anisotropy =   487.8737

      7  C    Isotropic =   -13.1886   Anisotropy =   185.2873

      8  C    Isotropic =   133.4442   Anisotropy =    19.8564

      9  C    Isotropic =    23.7583   Anisotropy =   220.1210

     10  C    Isotropic =    33.8966   Anisotropy =   201.3890

     11  C    Isotropic =    34.6003   Anisotropy =   216.2882

     12  C    Isotropic =    35.6316   Anisotropy =   215.5877

     13  C    Isotropic =    34.5989   Anisotropy =   216.2888

     14  C    Isotropic =    33.8950   Anisotropy =   201.4856

     15  N    Isotropic =   -94.8957   Anisotropy =   487.9128

     16  H    Isotropic =    24.2321   Anisotropy =    10.9550

     17  H    Isotropic =    27.5461   Anisotropy =     5.0005

     18  H    Isotropic =    27.5478   Anisotropy =     5.0003

     19  H    Isotropic =    23.4510   Anisotropy =     8.6869

     20  H    Isotropic =    23.8109   Anisotropy =     6.3448

     21  H    Isotropic =    23.8614   Anisotropy =     5.6734

     22  H    Isotropic =    23.8106   Anisotropy =     6.3487

     23  H    Isotropic =    23.4489   Anisotropy =     8.6933

 The electronic state is 1-A.
 Alpha  occ. eigenvalues -- -102.66546-102.66545 -14.78239 -14.78238 -10.67339
 Alpha  occ. eigenvalues --  -10.67339 -10.64916 -10.58859 -10.56005 -10.55843
 Alpha  occ. eigenvalues --  -10.54669 -10.54651 -10.54552 -10.54540 -10.54511
 Alpha  occ. eigenvalues --   -9.82811  -9.82810  -7.55005  -7.55005  -7.54500
 Alpha  occ. eigenvalues --   -7.54499  -7.54459  -7.54458  -1.13991  -1.04886
 Alpha  occ. eigenvalues --   -0.99102  -0.96631  -0.95043  -0.90533  -0.87422
 Alpha  occ. eigenvalues --   -0.84541  -0.81322  -0.73412  -0.73358  -0.69292
 Alpha  occ. eigenvalues --   -0.66990  -0.63610  -0.60399  -0.59251  -0.55959
 Alpha  occ. eigenvalues --   -0.54882  -0.53597  -0.52870  -0.50984  -0.49918
 Alpha  occ. eigenvalues --   -0.49033  -0.48411  -0.46615  -0.45832  -0.43861
 Alpha  occ. eigenvalues --   -0.42700  -0.41014  -0.40493  -0.40304  -0.39628
 Alpha  occ. eigenvalues --   -0.39593  -0.36777  -0.35530  -0.34360  -0.31130
 Alpha  occ. eigenvalues --   -0.30477
 Alpha virt. eigenvalues --   -0.03140  -0.02755   0.01790   0.02089   0.03990
 Alpha virt. eigenvalues --    0.07512   0.08288   0.08685   0.10451   0.10456
 Alpha virt. eigenvalues --    0.11408   0.12698   0.12968   0.14149   0.14595

 Mulliken charges:
               1
     1  Cl  -0.047416
     2  C    0.144323
     3  C   -0.242779
     4  C    0.144359
     5  Cl  -0.047419
     6  N   -0.230212
     7  C    0.309894
     8  C   -0.426199
     9  C    0.110330
    10  C   -0.185491
    11  C   -0.132680
    12  C   -0.152778
    13  C   -0.132682
    14  C   -0.185614
    15  N   -0.230071
    16  H    0.180170
    17  H    0.187346
    18  H    0.187253
    19  H    0.157615
    20  H    0.144867
    21  H    0.144535
    22  H    0.144871
    23  H    0.157779
 Sum of Mulliken charges =  -0.00000

 Dipole moment (field-independent basis, Debye):
    X=              0.0339    Y=             -0.0000    Z=             -0.2791  Tot=              0.2811
 Quadrupole moment (field-independent basis, Debye-Ang):
   XX=            -94.1166   YY=           -101.6428   ZZ=            -98.0901
   XY=              0.0072   XZ=             -1.2453   YZ=              0.0104

 Normal termination of Gaussian 16 at Wed Aug 14 20:36:11 2024.
