 Gaussian 16, Revision C.01,

 ----------------------------------------------------------------------
 # B3LYP/6-31G(d,p) symmetry=loose empiricaldispersion=GD3BJ int=(grid=
 ultrafine) opt freq=noraman
 ----------------------------------------------------------------------

 ----------
 pyrmd5.xyz
 ----------
 Symbolic Z-matrix:
 Charge =  0 Multiplicity = 1

 SCF Done:  E(RB3LYP) =  -648.094325204     A.U. after   15 cycles
 SCF Done:  E(RB3LYP) =  -648.099620878     A.U. after   12 cycles
 SCF Done:  E(RB3LYP) =  -648.100105518     A.U. after   11 cycles
 SCF Done:  E(RB3LYP) =  -648.100124136     A.U. after    9 cycles
 SCF Done:  E(RB3LYP) =  -648.100118326     A.U. after    9 cycles
 SCF Done:  E(RB3LYP) =  -648.100115031     A.U. after    9 cycles
 SCF Done:  E(RB3LYP) =  -648.100124129     A.U. after    9 cycles
 SCF Done:  E(RB3LYP) =  -648.100124916     A.U. after    8 cycles
 Optimization completed.
    -- Stationary point found.
 Normal termination of Gaussian 16 at Wed Aug 14 20:24:22 2024.

 ----------------------------------------------------------------------
 #N Geom=AllCheck Guess=TCheck SCRF=Check GenChk RB3LYP/6-31G(d,p) Freq
 ----------------------------------------------------------------------

 Structure from the checkpoint file:  "pyrmd5_conf-2.chk"
 ----------
 pyrmd5.xyz
 ----------
 Charge =  0 Multiplicity = 1

 SCF Done:  E(RB3LYP) =  -648.100124916     A.U. after    1 cycles

                      1                      2                      3
                      A                      A                      A
 Frequencies --     47.0601                49.0743               120.3247
 Red. masses --      6.5927                 4.0261                 5.3945
 Frc consts  --      0.0086                 0.0057                 0.0460
 IR Inten    --      0.0790                 0.0584                 0.3325

                      4                      5                      6
                      A                      A                      A
 Frequencies --    121.8341               141.1243               189.2709
 Red. masses --      4.4780                 1.1022                 3.4044
 Frc consts  --      0.0392                 0.0129                 0.0719
 IR Inten    --      7.4807                 0.4171                 5.1280

                      7                      8                      9
                      A                      A                      A
 Frequencies --    219.7010               234.7042               284.1331
 Red. masses --      3.9465                 6.0470                 5.8650
 Frc consts  --      0.1122                 0.1963                 0.2790
 IR Inten    --      1.2694                10.7625                 0.7886

                     10                     11                     12
                      A                      A                      A
 Frequencies --    317.8254               347.7999               415.8252
 Red. masses --      3.4954                 3.4559                 3.0004
 Frc consts  --      0.2080                 0.2463                 0.3057
 IR Inten    --      0.0022                 0.0827                 0.0167

                     13                     14                     15
                      A                      A                      A
 Frequencies --    429.7157               451.9211               496.2081
 Red. masses --      3.4671                 5.7587                 3.4390
 Frc consts  --      0.3772                 0.6929                 0.4989
 IR Inten    --      0.5534                 5.9900                 0.0593

                     16                     17                     18
                      A                      A                      A
 Frequencies --    508.7024               594.4829               635.2240
 Red. masses --      5.2470                 7.4302                 6.4157
 Frc consts  --      0.8000                 1.5471                 1.5253
 IR Inten    --      7.2063                 3.9061                 0.4299

                     19                     20                     21
                      A                      A                      A
 Frequencies --    640.6330               681.6502               707.4088
 Red. masses --      3.3430                 7.0695                 1.8364
 Frc consts  --      0.8084                 1.9354                 0.5414
 IR Inten    --      1.6113                 0.5293                25.6411

                     22                     23                     24
                      A                      A                      A
 Frequencies --    754.1556               769.7172               785.4657
 Red. masses --      6.4941                 2.0154                 4.5215
 Frc consts  --      2.1762                 0.7035                 1.6436
 IR Inten    --      8.9526                40.9022                61.1289

                     25                     26                     27
                      A                      A                      A
 Frequencies --    845.1335               870.1764               933.9158
 Red. masses --      4.5786                 1.2463                 6.7973
 Frc consts  --      1.9268                 0.5560                 3.4930
 IR Inten    --      0.7263                 0.0007                15.5119

                     28                     29                     30
                      A                      A                      A
 Frequencies --    960.4039               971.0695               995.2320
 Red. masses --      1.4083                 1.4586                 1.3500
 Frc consts  --      0.7654                 0.8104                 0.7878
 IR Inten    --      3.1552                 0.7036                 0.0003

                     31                     32                     33
                      A                      A                      A
 Frequencies --   1011.5649              1012.3143              1021.3715
 Red. masses --      1.7858                 1.2792                 6.1978
 Frc consts  --      1.0767                 0.7724                 3.8094
 IR Inten    --      1.4753                 0.0826                 2.8385

                     34                     35                     36
                      A                      A                      A
 Frequencies --   1030.8909              1055.2053              1060.0049
 Red. masses --      1.7201                 2.2096                 1.6824
 Frc consts  --      1.0770                 1.4496                 1.1138
 IR Inten    --      0.6877                11.4740                 3.9971

                     37                     38                     39
                      A                      A                      A
 Frequencies --   1107.7851              1121.6639              1188.7665
 Red. masses --      1.5731                 3.0436                 1.1014
 Frc consts  --      1.1374                 2.2561                 0.9171
 IR Inten    --      6.4722                 4.5439                 0.3782

                     40                     41                     42
                      A                      A                      A
 Frequencies --   1199.1926              1224.5463              1270.8342
 Red. masses --      1.2757                 3.4114                 3.3764
 Frc consts  --      1.0809                 3.0139                 3.2128
 IR Inten    --     98.9676                81.0805                 2.5768

                     43                     44                     45
                      A                      A                      A
 Frequencies --   1284.9728              1325.4227              1358.2832
 Red. masses --      2.6613                 2.8533                 1.7767
 Frc consts  --      2.5890                 2.9533                 1.9312
 IR Inten    --     36.3657                11.9154                 9.4767

                     46                     47                     48
                      A                      A                      A
 Frequencies --   1372.7618              1403.8871              1423.9228
 Red. masses --      4.8153                 2.1496                 1.4394
 Frc consts  --      5.3465                 2.4961                 1.7195
 IR Inten    --     15.8176                74.3286                 5.4413

                     49                     50                     51
                      A                      A                      A
 Frequencies --   1449.9300              1466.6178              1483.8625
 Red. masses --      1.3841                 2.0241                 1.7112
 Frc consts  --      1.7144                 2.5651                 2.2199
 IR Inten    --      5.8859               233.4869                30.1349

                     52                     53                     54
                      A                      A                      A
 Frequencies --   1485.5548              1499.6696              1539.0504
 Red. masses --      1.0449                 2.4580                 2.5146
 Frc consts  --      1.3587                 3.2570                 3.5093
 IR Inten    --      6.8717                 3.9750                33.2983

                     55                     56                     57
                      A                      A                      A
 Frequencies --   1572.0408              1631.5761              1642.4418
 Red. masses --      7.5266                 5.7116                 6.0215
 Frc consts  --     10.9592                 8.9582                 9.5705
 IR Inten    --    276.6553               417.4934               101.1230

                     58                     59                     60
                      A                      A                      A
 Frequencies --   1663.1272              1790.1777              2897.0100
 Red. masses --      5.8213                 9.6271                 1.0832
 Frc consts  --      9.4869                18.1776                 5.3561
 IR Inten    --      7.9938               272.2451               146.2098

                     61                     62                     63
                      A                      A                      A
 Frequencies --   3065.7897              3125.7922              3144.0530
 Red. masses --      1.0358                 1.0985                 1.0907
 Frc consts  --      5.7361                 6.3235                 6.3521
 IR Inten    --      2.1509                 3.3446                25.8460

                     64                     65                     66
                      A                      A                      A
 Frequencies --   3169.5256              3183.5876              3195.3046
 Red. masses --      1.1055                 1.0857                 1.0903
 Frc consts  --      6.5432                 6.4834                 6.5589
 IR Inten    --      9.2419                 0.0043                17.0183

                     67                     68                     69
                      A                      A                      A
 Frequencies --   3206.4877              3230.8148              3232.0132
 Red. masses --      1.0958                 1.0921                 1.0934
 Frc consts  --      6.6380                 6.7164                 6.7292
 IR Inten    --     30.3722                 3.7094                 5.0640

 - Thermochemistry -
 -------------------
 Temperature   298.150 Kelvin.  Pressure   1.00000 Atm.
 Atom     1 has atomic number  8 and mass  15.99491

 Molecular mass:   198.07931 amu.
 Principal axes and moments of inertia in atomic units:
                                 1                 2                 3
     Eigenvalues --          927.166156       5931.113011       6847.357467
           X                   0.999994          0.003382          0.000000
           Y                  -0.003382          0.999994          0.000000
           Z                  -0.000000         -0.000000          1.000000
 This molecule is an asymmetric top.
 Rotational symmetry number  1.
 Warning -- assumption of classical behavior for rotation
           may cause significant error
 Rotational temperatures (Kelvin)      0.09342     0.01460     0.01265
 Rotational constants (GHZ):           1.94651     0.30428     0.26357
 Zero-point vibrational energy     512406.7 (Joules/Mol)
                                  122.46814 (Kcal/Mol)
 Warning -- explicit consideration of  17 degrees of freedom as
           vibrations may cause significant error
 Vibrational temperatures:     67.71    70.61   173.12   175.29   203.05
          (Kelvin)            272.32   316.10   337.69   408.80   457.28
                              500.41   598.28   618.27   650.21   713.93
                              731.91   855.33   913.95   921.73   980.74
                             1017.80  1085.06  1107.45  1130.11  1215.96
                             1251.99  1343.70  1381.81  1397.15  1431.92
                             1455.42  1456.49  1469.53  1483.22  1518.21
                             1525.11  1593.86  1613.82  1710.37  1725.37
                             1761.85  1828.45  1848.79  1906.99  1954.27
                             1975.10  2019.88  2048.71  2086.13  2110.14
                             2134.95  2137.38  2157.69  2214.35  2261.82
                             2347.47  2363.11  2392.87  2575.67  4168.15
                             4410.99  4497.32  4523.59  4560.24  4580.47
                             4597.33  4613.42  4648.42  4650.15

 Zero-point correction=                           0.195165 (Hartree/Particle)
 Thermal correction to Energy=                    0.207461
 Thermal correction to Enthalpy=                  0.208406
 Thermal correction to Gibbs Free Energy=         0.155793
 Sum of electronic and zero-point Energies=           -647.904960
 Sum of electronic and thermal Energies=              -647.892663
 Sum of electronic and thermal Enthalpies=            -647.891719
 Sum of electronic and thermal Free Energies=         -647.944332

                     E (Thermal)             CV                S
                      KCal/Mol        Cal/Mol-Kelvin    Cal/Mol-Kelvin
 Total                  130.184             47.075            110.733
 Electronic               0.000              0.000              0.000
 Translational            0.889              2.981             41.755
 Rotational               0.889              2.981             31.999
 Vibrational            128.407             41.114             36.979
 Vibration     1          0.595              1.979              4.937
 Vibration     2          0.595              1.978              4.854
 Vibration     3          0.609              1.932              3.095
 Vibration     4          0.609              1.931              3.071
 Vibration     5          0.615              1.912              2.789
 Vibration     6          0.633              1.855              2.235
 Vibration     7          0.647              1.811              1.962
 Vibration     8          0.655              1.788              1.843
 Vibration     9          0.683              1.703              1.509
 Vibration    10          0.704              1.640              1.321
 Vibration    11          0.725              1.580              1.176
 Vibration    12          0.779              1.436              0.906
 Vibration    13          0.791              1.406              0.860
 Vibration    14          0.811              1.357              0.790
 Vibration    15          0.852              1.258              0.668
 Vibration    16          0.864              1.231              0.637
 Vibration    17          0.952              1.044              0.459

 Optimization completed.
    -- Stationary point found.
 Normal termination of Gaussian 16 at Wed Aug 14 20:26:22 2024.

 ----------------------------------------------------------------------
 # M062X/def2tzvp int=(grid=ultrafine) pop=nbo7 polar prop=efg volume g
 uess=read geom=check
 ----------------------------------------------------------------------

 ----------
 pyrmd5.xyz
 ----------
 Structure from the checkpoint file:  "pyrmd5_conf-2.chk"
 Charge =  0 Multiplicity = 1

 SCF Done:  E(RM062X) =  -648.001137145     A.U. after   12 cycles

  Exact polarizability:     259.681      -1.419     154.646       0.000       0.000      80.062
 Approx polarizability:     284.706       2.909     216.385      -0.000       0.000     114.519

 Summary of Natural Population Analysis:

                                     Natural Population
             Natural    ---------------------------------------------
  Atom No    Charge        Core      Valence    Rydberg      Total
 --------------------------------------------------------------------
    O  1   -0.51952      2.00000     6.49421    0.02532     8.51952
    C  2    0.40835      1.99999     3.56081    0.03084     5.59165
    C  3   -0.27872      1.99999     4.26211    0.01661     6.27872
    C  4    0.12629      1.99999     3.85141    0.02230     5.87371
    N  5   -0.46364      1.99999     5.43260    0.03104     7.46364
    C  6    0.32997      1.99999     3.65080    0.01924     5.67003
    C  7   -0.65442      1.99999     4.64364    0.01079     6.65442
    N  8   -0.47026      1.99999     5.43910    0.03117     7.47026
    C  9    0.42854      1.99999     3.54581    0.02566     5.57146
    C 10   -0.11350      1.99999     4.09443    0.01908     6.11350
    C 11   -0.16532      1.99999     4.14941    0.01591     6.16532
    C 12   -0.21727      1.99999     4.20097    0.01631     6.21727
    C 13   -0.18861      1.99999     4.17232    0.01630     6.18861
    C 14   -0.21728      1.99999     4.20099    0.01631     6.21728
    C 15   -0.16535      1.99999     4.14950    0.01585     6.16535
    H 16    0.11644      0.00000     0.88009    0.00347     0.88356
    H 17    0.19794      0.00000     0.80008    0.00197     0.80206
    H 18    0.24526      0.00000     0.75359    0.00115     0.75474
    H 19    0.22994      0.00000     0.76865    0.00142     0.77006
    H 20    0.24526      0.00000     0.75359    0.00115     0.75474
    H 21    0.23833      0.00000     0.76025    0.00142     0.76167
    H 22    0.21688      0.00000     0.78195    0.00117     0.78312
    H 23    0.21548      0.00000     0.78341    0.00111     0.78452
    H 24    0.21685      0.00000     0.78198    0.00117     0.78315
    H 25    0.23836      0.00000     0.76028    0.00136     0.76164
 ====================================================================
 * Total *  0.00000     29.99988    73.67198    0.32814   104.00000

 Normal termination of Gaussian 16 at Wed Aug 14 20:34:21 2024.
 Gaussian 16:  ES64L-G16RevC.01  3-Jul-2019

 --------------------------------------------------------------------
 # M062X/def2tzvp int=(grid=ultrafine) nmr=giao guess=read geom=check
 --------------------------------------------------------------------

 ----------
 pyrmd5.xyz
 ----------
 Structure from the checkpoint file:  "pyrmd5_conf-2.chk"
 Charge =  0 Multiplicity = 1

                         Standard orientation:
 ---------------------------------------------------------------------
 Center     Atomic      Atomic             Coordinates (Angstroms)
 Number     Number       Type             X           Y           Z
 ---------------------------------------------------------------------
      1          8           0        4.748822    0.080275   -0.000047
      2          6           0        3.877712   -0.771386   -0.000028
      3          6           0        2.429049   -0.522277   -0.000004
      4          6           0        1.556628   -1.615206    0.000005
      5          7           0        0.233477   -1.503154    0.000033
      6          6           0        1.826745    0.760161    0.000008
      7          6           0        2.619542    2.031852   -0.000000
      8          7           0        0.497367    0.875199    0.000039
      9          6           0       -0.251916   -0.244865    0.000073
     10          6           0       -1.718953   -0.079982    0.000030
     11          6           0       -2.288149    1.203243    0.000014
     12          6           0       -3.671078    1.354670   -0.000022
     13          6           0       -4.499986    0.230528   -0.000044
     14          6           0       -3.939443   -1.048806   -0.000031
     15          6           0       -2.557199   -1.206151    0.000005
     16          1           0        4.144284   -1.851838   -0.000042
     17          1           0        1.959650   -2.628484   -0.000008
     18          1           0        3.279366    2.076818   -0.871018
     19          1           0        1.934454    2.879847    0.000008
     20          1           0        3.279385    2.076818    0.871004
     21          1           0       -1.629950    2.063496    0.000033
     22          1           0       -4.104590    2.349899   -0.000032
     23          1           0       -5.579114    0.351016   -0.000072
     24          1           0       -4.581818   -1.923886   -0.000048
     25          1           0       -2.105859   -2.190892    0.000016
 ---------------------------------------------------------------------

 SCF Done:  E(RM062X) =  -648.001137145     A.U. after    1 cycles

      1  O    Isotropic =  -472.7979   Anisotropy =  1285.7848

      2  C    Isotropic =   -31.8548   Anisotropy =   176.9650

      3  C    Isotropic =    39.8326   Anisotropy =   196.5688

      4  C    Isotropic =    -4.3340   Anisotropy =   218.1190

      5  N    Isotropic =   -87.7405   Anisotropy =   574.6589

      6  C    Isotropic =   -13.4512   Anisotropy =   243.8092

      7  C    Isotropic =   156.3220   Anisotropy =    37.4459

      8  N    Isotropic =  -100.7287   Anisotropy =   538.3901

      9  C    Isotropic =    -5.3917   Anisotropy =   183.8942

     10  C    Isotropic =    26.4049   Anisotropy =   202.6454

     11  C    Isotropic =    32.2858   Anisotropy =   225.8853

     12  C    Isotropic =    34.6082   Anisotropy =   213.4074

     13  C    Isotropic =    29.7158   Anisotropy =   223.4665

     14  C    Isotropic =    35.4746   Anisotropy =   216.1242

     15  C    Isotropic =    32.3777   Anisotropy =   227.5356

     16  H    Isotropic =    20.8512   Anisotropy =     2.9581

     17  H    Isotropic =    22.0776   Anisotropy =     7.1054

     18  H    Isotropic =    28.7279   Anisotropy =     6.6432

     19  H    Isotropic =    29.0471   Anisotropy =     7.2920

     20  H    Isotropic =    28.7279   Anisotropy =     6.6432

     21  H    Isotropic =    21.8633   Anisotropy =     9.2333

     22  H    Isotropic =    23.5155   Anisotropy =     6.7436

     23  H    Isotropic =    23.5916   Anisotropy =     6.3739

     24  H    Isotropic =    23.5566   Anisotropy =     6.4876

     25  H    Isotropic =    21.9034   Anisotropy =     8.9861

 The electronic state is 1-A.
 Alpha  occ. eigenvalues --  -19.63809 -14.76900 -14.76676 -10.64555 -10.63851
 Alpha  occ. eigenvalues --  -10.62354 -10.61440 -10.57313 -10.56012 -10.55446
 Alpha  occ. eigenvalues --  -10.55115 -10.55104 -10.55000 -10.54992 -10.54050
 Alpha  occ. eigenvalues --   -1.17960  -1.11588  -1.01448  -0.97288  -0.93026
 Alpha  occ. eigenvalues --   -0.86085  -0.85193  -0.83917  -0.77557  -0.73530
 Alpha  occ. eigenvalues --   -0.70284  -0.69201  -0.67062  -0.61696  -0.61365
 Alpha  occ. eigenvalues --   -0.57877  -0.56132  -0.53995  -0.53222  -0.52594
 Alpha  occ. eigenvalues --   -0.51734  -0.49962  -0.49318  -0.48769  -0.47554
 Alpha  occ. eigenvalues --   -0.47505  -0.45990  -0.44505  -0.41840  -0.40912
 Alpha  occ. eigenvalues --   -0.40406  -0.38646  -0.36247  -0.34344  -0.33114
 Alpha  occ. eigenvalues --   -0.31593  -0.30057
 Alpha virt. eigenvalues --   -0.06395  -0.02112   0.01049   0.01933   0.06855
 Alpha virt. eigenvalues --    0.07614   0.08253   0.08448   0.10722   0.11436
 Alpha virt. eigenvalues --    0.11881   0.13380   0.13563   0.14395   0.14965

 Mulliken charges:
               1
     1  O   -0.301627
     2  C    0.092058
     3  C    0.012452
     4  C   -0.083586
     5  N   -0.269268
     6  C    0.174351
     7  C   -0.466232
     8  N   -0.274018
     9  C    0.292751
    10  C    0.063335
    11  C   -0.184883
    12  C   -0.136052
    13  C   -0.131941
    14  C   -0.134626
    15  C   -0.185122
    16  H    0.097972
    17  H    0.152395
    18  H    0.171144
    19  H    0.152671
    20  H    0.171144
    21  H    0.173329
    22  H    0.147357
    23  H    0.147980
    24  H    0.147424
    25  H    0.170992
 Sum of Mulliken charges =  -0.00000

 Dipole moment (field-independent basis, Debye):
    X=             -1.6281    Y=             -0.7616    Z=             -0.0000  Tot=              1.7974
 Quadrupole moment (field-independent basis, Debye-Ang):
   XX=            -89.7895   YY=            -79.4301   ZZ=            -89.7344
   XY=             -5.2503   XZ=              0.0004   YZ=              0.0001

 Normal termination of Gaussian 16 at Wed Aug 14 20:37:41 2024.
