 Gaussian 16, Revision C.01,

 ----------------------------------------------------------------------
 # B3LYP/6-31G(d,p) symmetry=loose empiricaldispersion=GD3BJ int=(grid=
 ultrafine) opt freq=noraman
 ----------------------------------------------------------------------

 ----------
 pyrmd3.xyz
 ----------
 Symbolic Z-matrix:
 Charge =  0 Multiplicity = 1

 SCF Done:  E(RB3LYP) =  -802.586364101     A.U. after   14 cycles
 SCF Done:  E(RB3LYP) =  -802.590079677     A.U. after   12 cycles
 SCF Done:  E(RB3LYP) =  -802.590391328     A.U. after   11 cycles
 SCF Done:  E(RB3LYP) =  -802.590413356     A.U. after    9 cycles
 Optimization completed.
    -- Stationary point found.
 Normal termination of Gaussian 16 at Wed Aug 14 20:24:30 2024.

 ----------------------------------------------------------------------
 #N Geom=AllCheck Guess=TCheck SCRF=Check GenChk RB3LYP/6-31G(d,p) Freq
 ----------------------------------------------------------------------

 Structure from the checkpoint file:  "pyrmd3_conf-2.chk"
 ----------
 pyrmd3.xyz
 ----------
 Charge =  0 Multiplicity = 1

 SCF Done:  E(RB3LYP) =  -802.590413356     A.U. after    1 cycles

                      1                      2                      3
                      A                      A                      A
 Frequencies --     19.1669                91.6267               181.2776
 Red. masses --      2.4921                 4.2876                 4.0521
 Frc consts  --      0.0005                 0.0212                 0.0785
 IR Inten    --      0.4289                 0.4260                 0.0229

                      4                      5                      6
                      A                      A                      A
 Frequencies --    259.2987               318.1299               335.1249
 Red. masses --      1.4302                 5.8552                 2.1465
 Frc consts  --      0.0567                 0.3491                 0.1420
 IR Inten    --      0.3708                 2.0267                 0.1027

                      7                      8                      9
                      A                      A                      A
 Frequencies --    383.8558               418.6854               470.6796
 Red. masses --      7.1001                 4.2196                 4.6174
 Frc consts  --      0.6164                 0.4358                 0.6027
 IR Inten    --      4.5802                 0.0019                 2.9885

                     10                     11                     12
                      A                      A                      A
 Frequencies --    499.4351               642.8096               652.9129
 Red. masses --      2.7356                 4.3501                 9.7144
 Frc consts  --      0.4020                 1.0590                 2.4399
 IR Inten    --      0.5019                18.8616                 9.2572

                     13                     14                     15
                      A                      A                      A
 Frequencies --    766.8105               797.8310               839.7189
 Red. masses --      1.6800                 2.6283                 7.1169
 Frc consts  --      0.5820                 0.9857                 2.9567
 IR Inten    --     10.2854                 4.2413                25.2064

                     16                     17                     18
                      A                      A                      A
 Frequencies --    949.1482               993.9670               996.1704
 Red. masses --      1.4496                 2.0490                 1.3635
 Frc consts  --      0.7694                 1.1927                 0.7972
 IR Inten    --      7.7704                 2.2519                 0.0127

                     19                     20                     21
                      A                      A                      A
 Frequencies --   1063.0064              1081.6332              1114.6637
 Red. masses --      3.4660                 2.1082                 1.5614
 Frc consts  --      2.3076                 1.4532                 1.1430
 IR Inten    --      1.4953                 1.2878                 0.0312

                     22                     23                     24
                      A                      A                      A
 Frequencies --   1193.2983              1243.1378              1275.9783
 Red. masses --      7.3826                 2.6915                 3.9595
 Frc consts  --      6.1938                 2.4507                 3.7982
 IR Inten    --    131.7105                85.7195                 9.9932

                     25                     26                     27
                      A                      A                      A
 Frequencies --   1299.8860              1302.9099              1364.9035
 Red. masses --      2.1289                 1.1477                 1.6855
 Frc consts  --      2.1194                 1.1479                 1.8501
 IR Inten    --      8.3655                 0.0116                12.5354

                     28                     29                     30
                      A                      A                      A
 Frequencies --   1419.8079              1438.7630              1455.0133
 Red. masses --      1.5180                 1.5766                 2.6277
 Frc consts  --      1.8030                 1.9229                 3.2776
 IR Inten    --      4.9727                58.2319               197.7033

                     31                     32                     33
                      A                      A                      A
 Frequencies --   1491.2671              1516.2820              1522.8027
 Red. masses --      1.0846                 1.0384                 1.0557
 Frc consts  --      1.4212                 1.4066                 1.4424
 IR Inten    --      1.4816                 6.9833                 5.3684

                     34                     35                     36
                      A                      A                      A
 Frequencies --   1589.9745              1639.4138              3032.2722
 Red. masses --      6.5952                 5.0180                 1.0607
 Frc consts  --      9.8233                 7.9462                 5.7463
 IR Inten    --     88.4352                50.6318                14.3744

                     37                     38                     39
                      A                      A                      A
 Frequencies --   3050.9174              3059.9864              3120.2541
 Red. masses --      1.0363                 1.1021                 1.1030
 Frc consts  --      5.6832                 6.0799                 6.3273
 IR Inten    --     17.7867                10.0588                28.6203

                     40                     41                     42
                      A                      A                      A
 Frequencies --   3130.4323              3155.6777              3191.5383
 Red. masses --      1.1019                 1.0914                 1.0909
 Frc consts  --      6.3622                 6.4033                 6.5471
 IR Inten    --     27.4959                19.5809                13.8793

 - Thermochemistry -
 -------------------
 Temperature   298.150 Kelvin.  Pressure   1.00000 Atm.
 Atom     1 has atomic number 17 and mass  34.96885

 Molecular mass:   142.02978 amu.
 Principal axes and moments of inertia in atomic units:
                                 1                 2                 3
     Eigenvalues --          374.469327       2587.113389       2939.314092
           X                   0.999961         -0.008800          0.000002
           Y                   0.008800          0.999961         -0.000001
           Z                  -0.000002          0.000001          1.000000
 This molecule is an asymmetric top.
 Rotational symmetry number  1.
 Rotational temperatures (Kelvin)      0.23130     0.03348     0.02947
 Rotational constants (GHZ):           4.81946     0.69759     0.61400
 Zero-point vibrational energy     325207.6 (Joules/Mol)
                                   77.72649 (Kcal/Mol)
 Warning -- explicit consideration of  10 degrees of freedom as
           vibrations may cause significant error
 Vibrational temperatures:     27.58   131.83   260.82   373.07   457.72
          (Kelvin)            482.17   552.28   602.39   677.20   718.58
                              924.86   939.40  1103.27  1147.90  1208.17
                             1365.61  1430.10  1433.27  1529.43  1556.23
                             1603.75  1716.89  1788.60  1835.85  1870.25
                             1874.60  1963.79  2042.79  2070.06  2093.44
                             2145.60  2181.59  2190.97  2287.62  2358.75
                             4362.76  4389.59  4402.64  4489.35  4503.99
                             4540.32  4591.91

 Zero-point correction=                           0.123865 (Hartree/Particle)
 Thermal correction to Energy=                    0.132097
 Thermal correction to Enthalpy=                  0.133041
 Thermal correction to Gibbs Free Energy=         0.089070
 Sum of electronic and zero-point Energies=           -802.466548
 Sum of electronic and thermal Energies=              -802.458316
 Sum of electronic and thermal Enthalpies=            -802.457372
 Sum of electronic and thermal Free Energies=         -802.501343

                     E (Thermal)             CV                S
                      KCal/Mol        Cal/Mol-Kelvin    Cal/Mol-Kelvin
 Total                   82.892             29.711             92.545
 Electronic               0.000              0.000              0.000
 Translational            0.889              2.981             40.764
 Rotational               0.889              2.981             29.433
 Vibrational             81.115             23.749             22.348
 Vibration     1          0.593              1.986              6.719
 Vibration     2          0.602              1.955              3.625
 Vibration     3          0.630              1.865              2.315
 Vibration     4          0.668              1.747              1.666
 Vibration     5          0.705              1.639              1.320
 Vibration     6          0.716              1.605              1.235
 Vibration     7          0.753              1.505              1.024
 Vibration     8          0.782              1.430              0.896
 Vibration     9          0.828              1.315              0.736
 Vibration    10          0.855              1.251              0.660

 Optimization completed.
    -- Stationary point found.
 Normal termination of Gaussian 16 at Wed Aug 14 20:25:20 2024.

 ----------------------------------------------------------------------
 # M062X/def2tzvp int=(grid=ultrafine) pop=nbo7 polar prop=efg volume g
 uess=read geom=check
 ----------------------------------------------------------------------

 ----------
 pyrmd3.xyz
 ----------
 Structure from the checkpoint file:  "pyrmd3_conf-2.chk"
 Charge =  0 Multiplicity = 1

 SCF Done:  E(RM062X) =  -802.531845684     A.U. after   12 cycles

  Exact polarizability:     134.651       2.323      88.196      -0.001       0.000      58.539
 Approx polarizability:     148.993       3.932     124.288      -0.001       0.001      80.848

 Summary of Natural Population Analysis:

                                     Natural Population
             Natural    ---------------------------------------------
  Atom No    Charge        Core      Valence    Rydberg      Total
 --------------------------------------------------------------------
   Cl  1    0.00888      9.99998     6.97515    0.01599    16.99112
    C  2    0.36794      1.99999     3.59566    0.03641     5.63206
    N  3   -0.43940      1.99999     5.40448    0.03493     7.43940
    C  4    0.08839      1.99999     3.89056    0.02106     5.91161
    C  5   -0.10655      1.99999     4.09102    0.01554     6.10655
    C  6   -0.41987      1.99999     4.40885    0.01102     6.41987
    C  7   -0.60787      1.99999     4.59861    0.00926     6.60787
    C  8    0.06875      1.99999     3.91039    0.02087     5.93125
    N  9   -0.44073      1.99999     5.40533    0.03541     7.44073
    H 10    0.19916      0.00000     0.79915    0.00168     0.80084
    H 11    0.21976      0.00000     0.77847    0.00177     0.78024
    H 12    0.21976      0.00000     0.77847    0.00177     0.78024
    H 13    0.22076      0.00000     0.77836    0.00088     0.77924
    H 14    0.20838      0.00000     0.79044    0.00119     0.79162
    H 15    0.20837      0.00000     0.79044    0.00119     0.79163
    H 16    0.20428      0.00000     0.79404    0.00168     0.79572
 ====================================================================
 * Total *  0.00000     25.99992    47.78943    0.21065    74.00000

 Normal termination of Gaussian 16 at Wed Aug 14 20:27:59 2024.
 Gaussian 16:  ES64L-G16RevC.01  3-Jul-2019

 --------------------------------------------------------------------
 # M062X/def2tzvp int=(grid=ultrafine) nmr=giao guess=read geom=check
 --------------------------------------------------------------------

 ----------
 pyrmd3.xyz
 ----------
 Structure from the checkpoint file:  "pyrmd3_conf-2.chk"
 Charge =  0 Multiplicity = 1

                         Standard orientation:
 ---------------------------------------------------------------------
 Center     Atomic      Atomic             Coordinates (Angstroms)
 Number     Number       Type             X           Y           Z
 ---------------------------------------------------------------------
      1         17           0       -3.111439   -0.234753    0.000071
      2          6           0       -1.372639   -0.018617   -0.000112
      3          7           0       -0.943281    1.239504   -0.000011
      4          6           0        0.383667    1.386915    0.000010
      5          6           0        1.282615    0.313404   -0.000034
      6          6           0        2.775671    0.548722   -0.000035
      7          6           0        3.639047   -0.713339    0.000114
      8          6           0        0.681597   -0.946859   -0.000067
      9          7           0       -0.646982   -1.126837   -0.000088
     10          1           0        0.749049    2.413445    0.000055
     11          1           0        3.029088    1.163186   -0.873616
     12          1           0        3.029054    1.163375    0.873419
     13          1           0        4.698752   -0.445885    0.000140
     14          1           0        3.451434   -1.328992    0.885498
     15          1           0        3.451521   -1.329146   -0.885180
     16          1           0        1.277666   -1.855205   -0.000084
 ---------------------------------------------------------------------

 SCF Done:  E(RM062X) =  -802.531845684     A.U. after    1 cycles

      1  Cl   Isotropic =   552.4794   Anisotropy =   692.2814

      2  C    Isotropic =    -4.8730   Anisotropy =   102.7539

      3  N    Isotropic =  -112.6529   Anisotropy =   530.6094

      4  C    Isotropic =    -0.8494   Anisotropy =   203.4808

      5  C    Isotropic =    30.7613   Anisotropy =   224.1358

      6  C    Isotropic =   161.6617   Anisotropy =    19.7090

      7  C    Isotropic =   175.7495   Anisotropy =     9.5628

      8  C    Isotropic =     5.1366   Anisotropy =   212.5563

      9  N    Isotropic =  -112.0340   Anisotropy =   537.4665

     10  H    Isotropic =    22.5843   Anisotropy =     9.6855

     11  H    Isotropic =    29.0929   Anisotropy =     8.2343

     12  H    Isotropic =    29.0929   Anisotropy =     8.2345

     13  H    Isotropic =    30.4817   Anisotropy =    10.2031

     14  H    Isotropic =    30.5612   Anisotropy =     8.7529

     15  H    Isotropic =    30.5610   Anisotropy =     8.7531

     16  H    Isotropic =    22.6597   Anisotropy =    11.2591

 The electronic state is 1-A.
 Alpha  occ. eigenvalues -- -102.64268 -14.77567 -14.77451 -10.67162 -10.60968
 Alpha  occ. eigenvalues --  -10.60802 -10.57906 -10.56768 -10.54936  -9.80553
 Alpha  occ. eigenvalues --   -7.52747  -7.52246  -7.52198  -1.12634  -1.01581
 Alpha  occ. eigenvalues --   -0.96520  -0.91989  -0.84810  -0.77273  -0.75095
 Alpha  occ. eigenvalues --   -0.70091  -0.61448  -0.60680  -0.55229  -0.53149
 Alpha  occ. eigenvalues --   -0.52390  -0.50333  -0.48941  -0.46369  -0.44648
 Alpha  occ. eigenvalues --   -0.44426  -0.40345  -0.39377  -0.39182  -0.38118
 Alpha  occ. eigenvalues --   -0.33601  -0.32445
 Alpha virt. eigenvalues --   -0.02639  -0.00648   0.05281   0.07752   0.08364
 Alpha virt. eigenvalues --    0.10203   0.10596   0.11720   0.13344   0.14249
 Alpha virt. eigenvalues --    0.14426   0.17164   0.18479   0.18889   0.19543

 Mulliken charges:
               1
     1  Cl  -0.052571
     2  C    0.180805
     3  N   -0.214597
     4  C   -0.042882
     5  C    0.024128
     6  C   -0.264678
     7  C   -0.493324
     8  C   -0.047313
     9  N   -0.213225
    10  H    0.160858
    11  H    0.157530
    12  H    0.157527
    13  H    0.156206
    14  H    0.160069
    15  H    0.160061
    16  H    0.171405
 Sum of Mulliken charges =   0.00000

 Dipole moment (field-independent basis, Debye):
    X=              4.7513    Y=              0.5874    Z=             -0.0001  Tot=              4.7874
 Quadrupole moment (field-independent basis, Debye-Ang):
   XX=            -57.9134   YY=            -61.0661   ZZ=            -60.2893
   XY=              1.0200   XZ=             -0.0001   YZ=             -0.0000

 Normal termination of Gaussian 16 at Wed Aug 14 20:28:55 2024.
