 Gaussian 16, Revision C.01,

 ----------------------------------------------------------------------
 # B3LYP/6-31G(d,p) symmetry=loose empiricaldispersion=GD3BJ int=(grid=
 ultrafine) opt freq=noraman
 ----------------------------------------------------------------------

 ---------
 pyrz2.xyz
 ---------
 Symbolic Z-matrix:
 Charge =  0 Multiplicity = 1

 SCF Done:  E(RB3LYP) =  -1046.52778347     A.U. after   15 cycles
 SCF Done:  E(RB3LYP) =  -1046.53730410     A.U. after   13 cycles
 SCF Done:  E(RB3LYP) =  -1046.53808359     A.U. after   12 cycles
 SCF Done:  E(RB3LYP) =  -1046.53875049     A.U. after   12 cycles
 SCF Done:  E(RB3LYP) =  -1046.53877714     A.U. after    9 cycles
 SCF Done:  E(RB3LYP) =  -1046.53876124     A.U. after   10 cycles
 SCF Done:  E(RB3LYP) =  -1046.53877412     A.U. after   10 cycles
 SCF Done:  E(RB3LYP) =  -1046.53877926     A.U. after    9 cycles
 SCF Done:  E(RB3LYP) =  -1046.53878059     A.U. after    8 cycles
 Optimization completed.
    -- Stationary point found.
 Normal termination of Gaussian 16 at Wed Aug 14 20:33:23 2024.

 ----------------------------------------------------------------------
 #N Geom=AllCheck Guess=TCheck SCRF=Check GenChk RB3LYP/6-31G(d,p) Freq
 ----------------------------------------------------------------------

 Structure from the checkpoint file:  "pyrz2_conf-1.chk"
 ---------
 pyrz2.xyz
 ---------
 Charge =  0 Multiplicity = 1

 SCF Done:  E(RB3LYP) =  -1046.53878059     A.U. after    1 cycles

                      1                      2                      3
                      A                      A                      A
 Frequencies --     45.3948                69.7678               118.7763
 Red. masses --      5.7846                 6.2328                 2.6378
 Frc consts  --      0.0070                 0.0179                 0.0219
 IR Inten    --      0.5447                 1.1139                 4.4402

                      4                      5                      6
                      A                      A                      A
 Frequencies --    139.8843               141.4023               150.2904
 Red. masses --      1.2331                 4.5943                 1.0903
 Frc consts  --      0.0142                 0.0541                 0.0145
 IR Inten    --      1.5572                 0.5907                 0.6718

                      7                      8                      9
                      A                      A                      A
 Frequencies --    182.7098               222.3812               242.6309
 Red. masses --      5.0221                 3.5370                 5.1590
 Frc consts  --      0.0988                 0.1031                 0.1789
 IR Inten    --      4.3737                33.1128                 0.7426

                     10                     11                     12
                      A                      A                      A
 Frequencies --    302.5126               305.1086               306.4827
 Red. masses --      1.3157                 3.7390                 7.2314
 Frc consts  --      0.0709                 0.2051                 0.4002
 IR Inten    --    156.3286                 2.1185                 7.1894

                     13                     14                     15
                      A                      A                      A
 Frequencies --    355.9252               372.9709               413.0392
 Red. masses --      4.1280                 5.4136                 6.5241
 Frc consts  --      0.3081                 0.4437                 0.6558
 IR Inten    --     28.2702                 3.0059                11.6395

                     16                     17                     18
                      A                      A                      A
 Frequencies --    489.5715               504.0963               514.4150
 Red. masses --     11.7452                 8.2721                 5.5116
 Frc consts  --      1.6586                 1.2385                 0.8593
 IR Inten    --     33.0999                 7.2945                 3.3132

                     19                     20                     21
                      A                      A                      A
 Frequencies --    586.7974               649.2442               676.8030
 Red. masses --      4.0012                 1.5707                 2.2100
 Frc consts  --      0.8117                 0.3901                 0.5964
 IR Inten    --     10.4628                 2.9367                 4.0124

                     22                     23                     24
                      A                      A                      A
 Frequencies --    701.6729               739.4472               787.5810
 Red. masses --     10.6598                 8.0909                 5.8133
 Frc consts  --      3.0922                 2.6065                 2.1245
 IR Inten    --      1.1105                 1.8476                 7.2263

                     25                     26                     27
                      A                      A                      A
 Frequencies --    798.6803               862.9526               982.4881
 Red. masses --     11.5411                 4.9869                 7.0639
 Frc consts  --      4.3375                 2.1880                 4.0175
 IR Inten    --     10.8413                 1.2453                20.4693

                     28                     29                     30
                      A                      A                      A
 Frequencies --   1015.1371              1051.9705              1060.0832
 Red. masses --      1.7612                 5.4086                 1.4763
 Frc consts  --      1.0693                 3.5265                 0.9775
 IR Inten    --    123.6886                54.1766                 1.3828

                     31                     32                     33
                      A                      A                      A
 Frequencies --   1102.7331              1164.4773              1178.6215
 Red. masses --      1.8524                 4.7112                 1.2757
 Frc consts  --      1.3272                 3.7640                 1.0441
 IR Inten    --      3.7292               311.4163                 0.7914

                     34                     35                     36
                      A                      A                      A
 Frequencies --   1218.9592              1269.8769              1349.8745
 Red. masses --      1.7370                 5.0552                 5.2623
 Frc consts  --      1.5206                 4.8030                 5.6495
 IR Inten    --    104.2080               352.3937               111.0324

                     37                     38                     39
                      A                      A                      A
 Frequencies --   1380.8121              1411.2554              1427.9640
 Red. masses --      5.5672                 2.9919                 1.6352
 Frc consts  --      6.2540                 3.5109                 1.9645
 IR Inten    --    143.0869                80.3500                24.2533

                     40                     41                     42
                      A                      A                      A
 Frequencies --   1479.5952              1487.0108              1494.7658
 Red. masses --      1.7504                 1.2939                 1.0432
 Frc consts  --      2.2577                 1.6857                 1.3734
 IR Inten    --     11.8467                23.8689                 6.0078

                     43                     44                     45
                      A                      A                      A
 Frequencies --   1496.5043              1502.2528              1509.6214
 Red. masses --      1.0467                 1.3166                 1.1094
 Frc consts  --      1.3811                 1.7507                 1.4896
 IR Inten    --      7.2554                15.3823                 4.3146

                     46                     47                     48
                      A                      A                      A
 Frequencies --   1554.1738              1608.9242              1654.5685
 Red. masses --      5.1089                 3.8506                 3.2944
 Frc consts  --      7.2706                 5.8728                 5.3137
 IR Inten    --    113.9311                81.2296               448.9724

                     49                     50                     51
                      A                      A                      A
 Frequencies --   1754.9736              3052.1717              3065.4431
 Red. masses --      9.0166                 1.0377                 1.0301
 Frc consts  --     16.3620                 5.6956                 5.7032
 IR Inten    --    253.9636                16.1702                39.0914

                     52                     53                     54
                      A                      A                      A
 Frequencies --   3108.5139              3141.9493              3161.7704
 Red. masses --      1.1008                 1.1069                 1.1016
 Frc consts  --      6.2670                 6.4379                 6.4882
 IR Inten    --     11.5158                20.6525                 5.4186

                     55                     56                     57
                      A                      A                      A
 Frequencies --   3179.8761              3554.5880              3729.5529
 Red. masses --      1.1068                 1.0478                 1.1035
 Frc consts  --      6.5936                 7.8002                 9.0432
 IR Inten    --     14.9673               134.2617               106.8848

 - Thermochemistry -
 -------------------
 Temperature   298.150 Kelvin.  Pressure   1.00000 Atm.
 Atom     1 has atomic number 17 and mass  34.96885

 Molecular mass:   201.03050 amu.
 Principal axes and moments of inertia in atomic units:
                                 1                 2                 3
     Eigenvalues --         1236.851481       4371.393716       5585.735388
           X                   0.999982         -0.006063          0.000001
           Y                   0.006063          0.999982          0.000000
           Z                  -0.000001         -0.000000          1.000000
 This molecule is an asymmetric top.
 Rotational symmetry number  1.
 Warning -- assumption of classical behavior for rotation
           may cause significant error
 Rotational temperatures (Kelvin)      0.07003     0.01981     0.01551
 Rotational constants (GHZ):           1.45914     0.41285     0.32310
 Zero-point vibrational energy     405719.8 (Joules/Mol)
                                   96.96935 (Kcal/Mol)
 Warning -- explicit consideration of  19 degrees of freedom as
           vibrations may cause significant error
 Vibrational temperatures:     65.31   100.38   170.89   201.26   203.45
          (Kelvin)            216.23   262.88   319.96   349.09   435.25
                              438.98   440.96   512.10   536.62   594.27
                              704.38   725.28   740.13   844.27   934.12
                              973.77  1009.55  1063.90  1133.15  1149.12
                             1241.60  1413.58  1460.56  1513.55  1525.22
                             1586.59  1675.42  1695.77  1753.81  1827.07
                             1942.17  1986.68  2030.48  2054.52  2128.81
                             2139.48  2150.63  2153.14  2161.41  2172.01
                             2236.11  2314.88  2380.56  2525.02  4391.39
                             4410.49  4472.46  4520.56  4549.08  4575.13
                             5114.26  5365.99

 Zero-point correction=                           0.154530 (Hartree/Particle)
 Thermal correction to Energy=                    0.167326
 Thermal correction to Enthalpy=                  0.168271
 Thermal correction to Gibbs Free Energy=         0.114831
 Sum of electronic and zero-point Energies=          -1046.384250
 Sum of electronic and thermal Energies=             -1046.371454
 Sum of electronic and thermal Enthalpies=           -1046.370510
 Sum of electronic and thermal Free Energies=        -1046.423949

                     E (Thermal)             CV                S
                      KCal/Mol        Cal/Mol-Kelvin    Cal/Mol-Kelvin
 Total                  104.999             46.158            112.472
 Electronic               0.000              0.000              0.000
 Translational            0.889              2.981             41.799
 Rotational               0.889              2.981             31.780
 Vibrational            103.221             40.196             38.893
 Vibration     1          0.595              1.979              5.009
 Vibration     2          0.598              1.969              4.160
 Vibration     3          0.609              1.934              3.120
 Vibration     4          0.615              1.913              2.805
 Vibration     5          0.615              1.912              2.785
 Vibration     6          0.618              1.902              2.669
 Vibration     7          0.630              1.863              2.301
 Vibration     8          0.648              1.807              1.940
 Vibration     9          0.659              1.775              1.784
 Vibration    10          0.694              1.669              1.403
 Vibration    11          0.696              1.664              1.389
 Vibration    12          0.697              1.661              1.381
 Vibration    13          0.731              1.563              1.140
 Vibration    14          0.744              1.528              1.068
 Vibration    15          0.777              1.442              0.916
 Vibration    16          0.845              1.273              0.685
 Vibration    17          0.859              1.241              0.648
 Vibration    18          0.869              1.218              0.623
 Vibration    19          0.944              1.060              0.473

 Optimization completed.
    -- Stationary point found.
 Normal termination of Gaussian 16 at Wed Aug 14 20:34:47 2024.

 ----------------------------------------------------------------------
 # M062X/def2tzvp int=(grid=ultrafine) pop=nbo7 polar prop=efg volume g
 uess=read geom=check
 ----------------------------------------------------------------------

 ---------
 pyrz2.xyz
 ---------
 Structure from the checkpoint file:  "pyrz2_conf-1.chk"
 Charge =  0 Multiplicity = 1

 SCF Done:  E(RM062X) =  -1046.48366090     A.U. after   12 cycles

  Exact polarizability:     183.648      -8.230     135.531      -0.000      -0.000      71.530
 Approx polarizability:     206.388     -14.350     175.929      -0.000      -0.001      99.241

 Summary of Natural Population Analysis:

                                     Natural Population
             Natural    ---------------------------------------------
  Atom No    Charge        Core      Valence    Rydberg      Total
 --------------------------------------------------------------------
   Cl  1    0.00425      9.99998     6.97962    0.01615    16.99575
    C  2    0.21529      1.99999     3.75210    0.03262     5.78471
    C  3    0.09892      1.99999     3.87962    0.02147     5.90108
    C  4   -0.63879      1.99999     4.62870    0.01010     6.63879
    N  5   -0.31653      1.99999     5.28546    0.03108     7.31653
    C  6   -0.04316      1.99999     4.02036    0.02281     6.04316
    C  7    0.76500      1.99999     3.20076    0.03425     5.23500
    O  8   -0.46353      2.00000     6.44033    0.02320     8.46353
    C  9   -0.26261      1.99999     4.24785    0.01476     6.26261
    O 10   -0.64067      2.00000     6.61622    0.02446     8.64067
    C 11    0.39271      1.99999     3.58384    0.02346     5.60729
    N 12   -0.77588      2.00000     5.75559    0.02029     7.77588
    N 13   -0.45767      1.99999     5.41820    0.03948     7.45767
    H 14    0.23699      0.00000     0.76173    0.00127     0.76301
    H 15    0.22744      0.00000     0.77136    0.00120     0.77256
    H 16    0.22744      0.00000     0.77136    0.00120     0.77256
    H 17    0.19635      0.00000     0.80251    0.00114     0.80365
    H 18    0.19143      0.00000     0.80702    0.00155     0.80857
    H 19    0.19143      0.00000     0.80702    0.00155     0.80857
    H 20    0.40785      0.00000     0.59016    0.00199     0.59215
    H 21    0.44372      0.00000     0.55466    0.00161     0.55628
 ====================================================================
 * Total *  0.00000     33.99989    69.67447    0.32564   104.00000

 Normal termination of Gaussian 16 at Wed Aug 14 20:39:50 2024.
 Gaussian 16:  ES64L-G16RevC.01  3-Jul-2019

 --------------------------------------------------------------------
 # M062X/def2tzvp int=(grid=ultrafine) nmr=giao guess=read geom=check
 --------------------------------------------------------------------

 ---------
 pyrz2.xyz
 ---------
 Structure from the checkpoint file:  "pyrz2_conf-1.chk"
 Charge =  0 Multiplicity = 1

                         Standard orientation:
 ---------------------------------------------------------------------
 Center     Atomic      Atomic             Coordinates (Angstroms)
 Number     Number       Type             X           Y           Z
 ---------------------------------------------------------------------
      1         17           0        3.674044    0.186047   -0.000006
      2          6           0        1.913696    0.170146   -0.000002
      3          6           0        1.239346   -1.073451    0.000004
      4          6           0        1.940484   -2.400559    0.000003
      5          7           0       -0.089925   -1.047475    0.000018
      6          6           0       -0.742565    0.119462    0.000019
      7          6           0       -2.222615    0.109505    0.000055
      8          8           0       -2.748335   -1.121873   -0.000014
      9          6           0       -4.183542   -1.170883   -0.000044
     10          8           0       -2.910348    1.126578    0.000044
     11          6           0       -0.029301    1.355108   -0.000003
     12          7           0       -0.625680    2.561980   -0.000032
     13          7           0        1.322748    1.338172   -0.000008
     14          1           0        1.190282   -3.191976   -0.000079
     15          1           0        2.581944   -2.514224    0.880024
     16          1           0        2.582082   -2.514155   -0.879923
     17          1           0       -4.436433   -2.230197   -0.000099
     18          1           0       -4.585504   -0.677995   -0.888430
     19          1           0       -4.585537   -0.678080    0.888374
     20          1           0       -0.042448    3.382652   -0.000015
     21          1           0       -1.636684    2.598829   -0.000017
 ---------------------------------------------------------------------

 SCF Done:  E(RM062X) =  -1046.48366090     A.U. after    1 cycles

      1  Cl   Isotropic =   599.4802   Anisotropy =   526.4352

      2  C    Isotropic =     4.6466   Anisotropy =   115.1509

      3  C    Isotropic =    25.2775   Anisotropy =   163.1982

      4  C    Isotropic =   162.3294   Anisotropy =    35.4607

      5  N    Isotropic =  -189.9457   Anisotropy =   678.1772

      6  C    Isotropic =    47.3087   Anisotropy =   135.1977

      7  C    Isotropic =    -4.0820   Anisotropy =   116.8124

      8  O    Isotropic =   132.1105   Anisotropy =   170.1059

      9  C    Isotropic =   130.7702   Anisotropy =    71.1068

     10  O    Isotropic =  -118.7317   Anisotropy =   636.5123

     11  C    Isotropic =    10.4867   Anisotropy =   174.4560

     12  N    Isotropic =   164.3279   Anisotropy =    84.0398

     13  N    Isotropic =   -91.4368   Anisotropy =   466.6862

     14  H    Isotropic =    29.3201   Anisotropy =     8.5799

     15  H    Isotropic =    29.3384   Anisotropy =     6.3144

     16  H    Isotropic =    29.3384   Anisotropy =     6.3138

     17  H    Isotropic =    28.0690   Anisotropy =     7.4147

     18  H    Isotropic =    28.0001   Anisotropy =     8.0229

     19  H    Isotropic =    28.0002   Anisotropy =     8.0230

     20  H    Isotropic =    26.7315   Anisotropy =     9.9221

     21  H    Isotropic =    23.2776   Anisotropy =    13.7205

 The electronic state is 1-A.
 Alpha  occ. eigenvalues -- -102.65547 -19.68025 -19.62964 -14.77993 -14.77697
 Alpha  occ. eigenvalues --  -14.77335 -10.68847 -10.65679 -10.64944 -10.59910
 Alpha  occ. eigenvalues --  -10.59877 -10.59706 -10.54037  -9.81805  -7.53992
 Alpha  occ. eigenvalues --   -7.53503  -7.53458  -1.24373  -1.14934  -1.12623
 Alpha  occ. eigenvalues --   -1.05543  -1.02557  -0.95373  -0.89256  -0.83543
 Alpha  occ. eigenvalues --   -0.80554  -0.75979  -0.73016  -0.67608  -0.64863
 Alpha  occ. eigenvalues --   -0.61958  -0.60779  -0.58839  -0.57934  -0.55019
 Alpha  occ. eigenvalues --   -0.54346  -0.52647  -0.50321  -0.49192  -0.47800
 Alpha  occ. eigenvalues --   -0.47682  -0.46642  -0.44119  -0.43549  -0.41993
 Alpha  occ. eigenvalues --   -0.40888  -0.38674  -0.38161  -0.37935  -0.36155
 Alpha  occ. eigenvalues --   -0.33415  -0.28183
 Alpha virt. eigenvalues --   -0.04490   0.00751   0.06899   0.07044   0.07139
 Alpha virt. eigenvalues --    0.08148   0.08526   0.10752   0.12434   0.13675
 Alpha virt. eigenvalues --    0.14298   0.14777   0.15121   0.15673   0.16952

 Mulliken charges:
               1
     1  Cl  -0.058328
     2  C    0.091376
     3  C    0.099451
     4  C   -0.494323
     5  N   -0.189572
     6  C   -0.018864
     7  C    0.417879
     8  O   -0.235598
     9  C   -0.261735
    10  O   -0.435738
    11  C    0.320797
    12  N   -0.510681
    13  N   -0.231150
    14  H    0.161203
    15  H    0.161491
    16  H    0.161489
    17  H    0.151097
    18  H    0.152733
    19  H    0.152733
    20  H    0.260556
    21  H    0.305186
 Sum of Mulliken charges =  -0.00000

 Dipole moment (field-independent basis, Debye):
    X=             -1.3585    Y=             -0.2584    Z=             -0.0000  Tot=              1.3829
 Quadrupole moment (field-independent basis, Debye-Ang):
   XX=            -78.1044   YY=            -75.4470   ZZ=            -82.1317
   XY=              0.3414   XZ=              0.0003   YZ=              0.0001

 Normal termination of Gaussian 16 at Wed Aug 14 20:41:40 2024.
