 Gaussian 16, Revision C.01,

 ----------------------------------------------------------------------
 # B3LYP/6-31G(d,p) symmetry=loose empiricaldispersion=GD3BJ int=(grid=
 ultrafine) opt freq=noraman
 ----------------------------------------------------------------------

 ---------
 pyrd1.xyz
 ---------
 Symbolic Z-matrix:
 Charge =  0 Multiplicity = 1

 SCF Done:  E(RB3LYP) =  -3011.39402571     A.U. after   14 cycles
 SCF Done:  E(RB3LYP) =  -3011.39689982     A.U. after   12 cycles
 SCF Done:  E(RB3LYP) =  -3011.39719612     A.U. after   11 cycles
 SCF Done:  E(RB3LYP) =  -3011.39725410     A.U. after   11 cycles
 SCF Done:  E(RB3LYP) =  -3011.39727306     A.U. after   10 cycles
 SCF Done:  E(RB3LYP) =  -3011.39727823     A.U. after    9 cycles
 SCF Done:  E(RB3LYP) =  -3011.39727883     A.U. after    8 cycles
 Optimization completed.
    -- Stationary point found.
 Normal termination of Gaussian 16 at Wed Aug 14 18:56:08 2024.

 ----------------------------------------------------------------------
 #N Geom=AllCheck Guess=TCheck SCRF=Check GenChk RB3LYP/6-31G(d,p) Freq
 ----------------------------------------------------------------------

 Structure from the checkpoint file:  "pyrd1_conf-1.chk"
 ---------
 pyrd1.xyz
 ---------
 Charge =  0 Multiplicity = 1

 SCF Done:  E(RB3LYP) =  -3011.39727883     A.U. after    1 cycles

                      1                      2                      3
                      A                      A                      A
 Frequencies --     99.3652               108.0575               166.9330
 Red. masses --      2.5917                 4.9033                 7.1652
 Frc consts  --      0.0151                 0.0337                 0.1176
 IR Inten    --      0.6480                 1.0650                 1.0311

                      4                      5                      6
                      A                      A                      A
 Frequencies --    203.9795               288.9318               298.2147
 Red. masses --      3.7803                 4.4084                10.1834
 Frc consts  --      0.0927                 0.2168                 0.5336
 IR Inten    --      0.0649                 0.5426                 2.0383

                      7                      8                      9
                      A                      A                      A
 Frequencies --    309.0246               416.7173               455.1806
 Red. masses --      1.8436                 4.8752                 4.2659
 Frc consts  --      0.1037                 0.4988                 0.5207
 IR Inten    --      3.1660                 0.7940                 3.3788

                     10                     11                     12
                      A                      A                      A
 Frequencies --    494.5797               538.8198               580.1761
 Red. masses --      4.0689                 5.1409                 5.6286
 Frc consts  --      0.5864                 0.8794                 1.1163
 IR Inten    --      1.8446                 4.0491                 7.4181

                     13                     14                     15
                      A                      A                      A
 Frequencies --    616.2028               634.4155               736.4635
 Red. masses --      4.6666                 3.0768                 3.0632
 Frc consts  --      1.0440                 0.7296                 0.9789
 IR Inten    --      2.3389                 4.2952                 1.6991

                     16                     17                     18
                      A                      A                      A
 Frequencies --    795.8431               862.3701               885.9243
 Red. masses --      4.4716                 3.9980                 1.8920
 Frc consts  --      1.6686                 1.7518                 0.8749
 IR Inten    --      6.3794                48.0700                13.6168

                     19                     20                     21
                      A                      A                      A
 Frequencies --    898.7993               900.3416               943.7362
 Red. masses --      1.4154                 2.2595                 1.4571
 Frc consts  --      0.6737                 1.0792                 0.7646
 IR Inten    --     15.3626                20.1971                 0.8885

                     22                     23                     24
                      A                      A                      A
 Frequencies --    950.2085              1030.1330              1081.4265
 Red. masses --      2.7143                 2.1549                 3.6686
 Frc consts  --      1.4439                 1.3473                 2.5278
 IR Inten    --     22.0149                31.5713                35.3713

                     25                     26                     27
                      A                      A                      A
 Frequencies --   1107.0641              1184.0488              1207.7806
 Red. masses --      1.7725                 2.7738                 2.5901
 Frc consts  --      1.2799                 2.2912                 2.2261
 IR Inten    --      3.4201                 6.2964                47.7037

                     28                     29                     30
                      A                      A                      A
 Frequencies --   1219.3296              1232.3491              1254.1640
 Red. masses --      1.4927                 1.5766                 1.8019
 Frc consts  --      1.3076                 1.4108                 1.6699
 IR Inten    --     19.0536                 3.7435                 3.8473

                     31                     32                     33
                      A                      A                      A
 Frequencies --   1287.4442              1307.3334              1328.2355
 Red. masses --      3.0141                 1.2029                 2.5714
 Frc consts  --      2.9435                 1.2113                 2.6728
 IR Inten    --     59.2949                 1.2510                98.2199

                     34                     35                     36
                      A                      A                      A
 Frequencies --   1373.1399              1384.4795              1415.1720
 Red. masses --      1.5663                 1.4431                 1.3847
 Frc consts  --      1.7400                 1.6298                 1.6340
 IR Inten    --     15.6322                 3.9090                17.6078

                     37                     38                     39
                      A                      A                      A
 Frequencies --   1458.0520              1480.4451              1498.0401
 Red. masses --      2.4405                 1.2168                 1.1915
 Frc consts  --      3.0569                 1.5713                 1.5754
 IR Inten    --     87.1685                 4.9071                 6.1024

                     40                     41                     42
                      A                      A                      A
 Frequencies --   1505.0007              1522.3895              1597.4030
 Red. masses --      2.0515                 1.1513                 7.5526
 Frc consts  --      2.7377                 1.5722                11.3548
 IR Inten    --     17.0003                 5.0463                69.9838

                     43                     44                     45
                      A                      A                      A
 Frequencies --   1633.2504              3021.5855              3040.0644
 Red. masses --      7.3691                 1.0703                 1.0690
 Frc consts  --     11.5816                 5.7575                 5.8209
 IR Inten    --      7.7570                47.9839                10.2413

                     46                     47                     48
                      A                      A                      A
 Frequencies --   3060.6040              3095.8358              3110.3188
 Red. masses --      1.0612                 1.0939                 1.1043
 Frc consts  --      5.8567                 6.1768                 6.2944
 IR Inten    --     21.1785                 8.0131                30.3761

                     49                     50                     51
                      A                      A                      A
 Frequencies --   3128.7756              3185.4073              3197.9093
 Red. masses --      1.0972                 1.0903                 1.0925
 Frc consts  --      6.3284                 6.5180                 6.5825
 IR Inten    --     33.6632                15.2957                 4.0386

 - Thermochemistry -
 -------------------
 Temperature   298.150 Kelvin.  Pressure   1.00000 Atm.
 Atom     1 has atomic number 35 and mass  78.91834

 Molecular mass:   212.97893 amu.
 Principal axes and moments of inertia in atomic units:
                                 1                 2                 3
     Eigenvalues --         1328.972334       3100.606870       4363.238927
           X                   0.998117          0.061286         -0.002437
           Y                  -0.061282          0.998119          0.001788
           Z                   0.002542         -0.001635          0.999995
 This molecule is an asymmetric top.
 Rotational symmetry number  1.
 Warning -- assumption of classical behavior for rotation
           may cause significant error
 Rotational temperatures (Kelvin)      0.06517     0.02793     0.01985
 Rotational constants (GHZ):           1.35800     0.58206     0.41362
 Zero-point vibrational energy     389572.7 (Joules/Mol)
                                   93.11011 (Kcal/Mol)
 Warning -- explicit consideration of  13 degrees of freedom as
           vibrations may cause significant error
 Vibrational temperatures:    142.96   155.47   240.18   293.48   415.71
          (Kelvin)            429.06   444.62   599.56   654.90   711.59
                              775.24   834.74   886.58   912.78  1059.61
                             1145.04  1240.76  1274.65  1293.17  1295.39
                             1357.83  1367.14  1482.13  1555.93  1592.82
                             1703.58  1737.73  1754.34  1773.08  1804.46
                             1852.35  1880.96  1911.03  1975.64  1991.96
                             2036.12  2097.81  2130.03  2155.35  2165.36
                             2190.38  2298.31  2349.88  4347.39  4373.97
                             4403.53  4454.22  4475.06  4501.61  4583.09
                             4601.08

 Zero-point correction=                           0.148380 (Hartree/Particle)
 Thermal correction to Energy=                    0.157290
 Thermal correction to Enthalpy=                  0.158234
 Thermal correction to Gibbs Free Energy=         0.113105
 Sum of electronic and zero-point Energies=          -3011.248898
 Sum of electronic and thermal Energies=             -3011.239989
 Sum of electronic and thermal Enthalpies=           -3011.239045
 Sum of electronic and thermal Free Energies=        -3011.284174

                     E (Thermal)             CV                S
                      KCal/Mol        Cal/Mol-Kelvin    Cal/Mol-Kelvin
 Total                   98.701             34.339             94.983
 Electronic               0.000              0.000              0.000
 Translational            0.889              2.981             41.972
 Rotational               0.889              2.981             31.264
 Vibrational             96.924             28.377             21.747
 Vibration     1          0.604              1.950              3.467
 Vibration     2          0.606              1.943              3.304
 Vibration     3          0.624              1.883              2.470
 Vibration     4          0.640              1.834              2.097
 Vibration     5          0.685              1.694              1.480
 Vibration     6          0.691              1.677              1.427
 Vibration     7          0.698              1.657              1.368
 Vibration     8          0.780              1.434              0.903
 Vibration     9          0.814              1.349              0.780
 Vibration    10          0.850              1.262              0.672
 Vibration    11          0.894              1.164              0.568
 Vibration    12          0.937              1.074              0.485
 Vibration    13          0.976              0.998              0.423

 Optimization completed.
    -- Stationary point found.
 Normal termination of Gaussian 16 at Wed Aug 14 18:57:36 2024.

 ----------------------------------------------------------------------
 # M062X/def2tzvp int=(grid=ultrafine) pop=nbo7 polar prop=efg volume g
 uess=read geom=check
 ----------------------------------------------------------------------

 ---------
 pyrd1.xyz
 ---------
 Structure from the checkpoint file:  "pyrd1_conf-1.chk"
 Charge =  0 Multiplicity = 1

 SCF Done:  E(RM062X) =  -3013.81554246     A.U. after   12 cycles

  Exact polarizability:     148.808      -1.241     130.701      -0.624      -1.083      74.376
 Approx polarizability:     183.958      -8.539     167.859       0.135      -2.544     105.274

 Summary of Natural Population Analysis:

                                     Natural Population
             Natural    ---------------------------------------------
  Atom No    Charge        Core      Valence    Rydberg      Total
 --------------------------------------------------------------------
   Br  1    0.04961     27.99996     6.93870    0.01173    34.95039
    C  2   -0.09579      1.99999     4.07072    0.02508     6.09579
    C  3   -0.09010      1.99999     4.06975    0.02036     6.09010
    C  4    0.26039      1.99999     3.71924    0.02038     5.73961
    O  5   -0.46921      1.99999     6.44722    0.02199     8.46921
    C  6   -0.06837      1.99999     4.05280    0.01558     6.06837
    C  7   -0.42657      1.99999     4.41598    0.01059     6.42657
    C  8   -0.42980      1.99999     4.41682    0.01300     6.42980
    C  9   -0.00773      1.99999     3.98507    0.02267     6.00773
    N 10   -0.38540      1.99999     5.35504    0.03036     7.38540
    C 11   -0.01943      1.99999     3.99603    0.02341     6.01943
    H 12    0.17070      0.00000     0.82710    0.00219     0.82930
    H 13    0.20016      0.00000     0.79839    0.00146     0.79984
    H 14    0.22178      0.00000     0.77700    0.00122     0.77822
    H 15    0.21235      0.00000     0.78599    0.00166     0.78765
    H 16    0.22633      0.00000     0.77179    0.00188     0.77367
    H 17    0.23790      0.00000     0.76031    0.00179     0.76210
    H 18    0.20591      0.00000     0.79257    0.00152     0.79409
    H 19    0.20726      0.00000     0.79112    0.00162     0.79274
 ====================================================================
 * Total *  0.00000     47.99988    57.77165    0.22847   106.00000

 Normal termination of Gaussian 16 at Wed Aug 14 19:03:03 2024.
 Gaussian 16:  ES64L-G16RevC.01  3-Jul-2019

 --------------------------------------------------------------------
 # M062X/def2tzvp int=(grid=ultrafine) nmr=giao guess=read geom=check
 --------------------------------------------------------------------

 ---------
 pyrd1.xyz
 ---------
 Structure from the checkpoint file:  "pyrd1_conf-1.chk"
 Charge =  0 Multiplicity = 1

                         Standard orientation:
 ---------------------------------------------------------------------
 Center     Atomic      Atomic             Coordinates (Angstroms)
 Number     Number       Type             X           Y           Z
 ---------------------------------------------------------------------
      1         35           0        2.356046   -0.558818    0.033602
      2          6           0        0.772438    0.514225   -0.004738
      3          6           0       -0.481369   -0.102001   -0.005112
      4          6           0       -1.582280    0.769694   -0.011405
      5          8           0       -2.875219    0.340744   -0.002017
      6          6           0       -3.082477   -1.031326    0.362655
      7          6           0       -2.125066   -1.950340   -0.382330
      8          6           0       -0.679816   -1.597128   -0.017050
      9          6           0       -1.372306    2.154393   -0.049272
     10          7           0       -0.161278    2.708173   -0.063160
     11          6           0        0.903848    1.899381   -0.033082
     12          1           0       -2.949557   -1.133913    1.449042
     13          1           0       -4.126368   -1.236951    0.119367
     14          1           0       -2.343634   -2.994038   -0.136585
     15          1           0       -2.284798   -1.824561   -1.458847
     16          1           0       -0.422623   -2.002111    0.970347
     17          1           0        0.026263   -2.050543   -0.719062
     18          1           0       -2.234638    2.815789   -0.067457
     19          1           0        1.886624    2.360398   -0.032605
 ---------------------------------------------------------------------

 SCF Done:  E(RM062X) =  -3013.81554246     A.U. after    1 cycles

      1  Br   Isotropic =  2206.8914   Anisotropy =   950.3540

      2  C    Isotropic =    27.0933   Anisotropy =   125.4318

      3  C    Isotropic =    34.1896   Anisotropy =   203.2522

      4  C    Isotropic =    11.2966   Anisotropy =   160.9964

      5  O    Isotropic =   224.8206   Anisotropy =   129.3529

      6  C    Isotropic =   116.3075   Anisotropy =    58.0532

      7  C    Isotropic =   162.0600   Anisotropy =     9.7380

      8  C    Isotropic =   158.5396   Anisotropy =    11.1305

      9  C    Isotropic =    24.3521   Anisotropy =   169.5049

     10  N    Isotropic =  -152.6619   Anisotropy =   653.3556

     11  C    Isotropic =    19.5734   Anisotropy =   158.5015

     12  H    Isotropic =    28.0628   Anisotropy =     7.9191

     13  H    Isotropic =    27.4981   Anisotropy =     7.4826

     14  H    Isotropic =    30.0181   Anisotropy =     9.7725

     15  H    Isotropic =    29.9584   Anisotropy =     8.7785

     16  H    Isotropic =    29.3058   Anisotropy =     7.0013

     17  H    Isotropic =    28.9706   Anisotropy =     8.7319

     18  H    Isotropic =    22.9201   Anisotropy =     8.2111

     19  H    Isotropic =    22.8390   Anisotropy =    11.3562

 The electronic state is 1-A.
 Alpha  occ. eigenvalues -- -485.38216 -63.36685 -57.18632 -57.18396 -57.18387
 Alpha  occ. eigenvalues --  -19.66894 -14.75853 -10.61954 -10.61001 -10.60869
 Alpha  occ. eigenvalues --  -10.58103 -10.58046 -10.57861 -10.56342 -10.55832
 Alpha  occ. eigenvalues --   -9.03320  -6.85727  -6.84855  -6.84825  -2.89104
 Alpha  occ. eigenvalues --   -2.88791  -2.88758  -2.87945  -2.87944  -1.20516
 Alpha  occ. eigenvalues --   -1.06074  -0.95449  -0.90991  -0.89578  -0.83114
 Alpha  occ. eigenvalues --   -0.78765  -0.75417  -0.70412  -0.66509  -0.60960
 Alpha  occ. eigenvalues --   -0.60044  -0.58691  -0.54476  -0.52579  -0.52241
 Alpha  occ. eigenvalues --   -0.50021  -0.49284  -0.48574  -0.45413  -0.44990
 Alpha  occ. eigenvalues --   -0.43300  -0.41480  -0.39691  -0.38635  -0.36128
 Alpha  occ. eigenvalues --   -0.33069  -0.32213  -0.29088
 Alpha virt. eigenvalues --   -0.00553   0.01416   0.03316   0.05647   0.09221
 Alpha virt. eigenvalues --    0.09476   0.10470   0.11807   0.12093   0.12609
 Alpha virt. eigenvalues --    0.13660   0.14530   0.15267   0.16840   0.17842

 Mulliken charges:
               1
     1  Br  -0.094944
     2  C   -0.011425
     3  C    0.062159
     4  C    0.213217
     5  O   -0.280047
     6  C   -0.113147
     7  C   -0.289789
     8  C   -0.351524
     9  C   -0.115008
    10  N   -0.209961
    11  C   -0.089029
    12  H    0.143265
    13  H    0.150133
    14  H    0.152860
    15  H    0.160059
    16  H    0.184120
    17  H    0.174365
    18  H    0.156074
    19  H    0.158622
 Sum of Mulliken charges =  -0.00000

 Dipole moment (field-independent basis, Debye):
    X=             -1.7382    Y=             -3.4158    Z=              0.2860  Tot=              3.8433
 Quadrupole moment (field-independent basis, Debye-Ang):
   XX=            -73.4610   YY=            -79.1844   ZZ=            -77.6832
   XY=              5.2508   XZ=             -0.9813   YZ=             -0.0871

 Normal termination of Gaussian 16 at Wed Aug 14 19:05:05 2024.
