 Gaussian 16, Revision C.01,

 ----------------------------------------------------------------------
 # B3LYP gen 6D pseudo=read symmetry=loose empiricaldispersion=GD3BJ in
 t=(grid=ultrafine) opt freq=noraman
 ----------------------------------------------------------------------

 ----------
 pyrdz1.xyz
 ----------
 Symbolic Z-matrix:
 Charge =  0 Multiplicity = 1

 SCF Done:  E(RB3LYP) =  -723.379065047     A.U. after   15 cycles
 SCF Done:  E(RB3LYP) =  -723.382390191     A.U. after   12 cycles
 SCF Done:  E(RB3LYP) =  -723.382625345     A.U. after   11 cycles
 SCF Done:  E(RB3LYP) =  -723.382649830     A.U. after   11 cycles
 SCF Done:  E(RB3LYP) =  -723.382654935     A.U. after    9 cycles
 SCF Done:  E(RB3LYP) =  -723.382656274     A.U. after    8 cycles
 Optimization completed.
    -- Stationary point found.
 Normal termination of Gaussian 16 at Wed Aug 14 20:11:44 2024.

 ------------------------------------------------------------------
 #N Geom=AllCheck Guess=TCheck SCRF=Check GenChk RB3LYP/ChkBas Freq
 ------------------------------------------------------------------

 Structure from the checkpoint file:  "pyrdz1_conf-4.chk"
 ----------
 pyrdz1.xyz
 ----------
 Charge =  0 Multiplicity = 1

 SCF Done:  E(RB3LYP) =  -723.382656274     A.U. after    1 cycles

                      1                      2                      3
                      A                      A                      A
 Frequencies --     22.9676                31.3568                50.1710
 Red. masses --      3.5283                 4.9770                 5.3732
 Frc consts  --      0.0011                 0.0029                 0.0080
 IR Inten    --      0.0549                 0.1223                 0.5632

                      4                      5                      6
                      A                      A                      A
 Frequencies --     60.4454               102.4603               151.1070
 Red. masses --      5.5304                 5.4682                 5.7270
 Frc consts  --      0.0119                 0.0338                 0.0770
 IR Inten    --      3.1260                 1.1398                 0.1839

                      7                      8                      9
                      A                      A                      A
 Frequencies --    156.2271               183.4544               199.1278
 Red. masses --      7.0214                 5.8959                 4.6647
 Frc consts  --      0.1010                 0.1169                 0.1090
 IR Inten    --      0.1476                 0.5914                 0.5016

                     10                     11                     12
                      A                      A                      A
 Frequencies --    225.0599               235.4231               257.1029
 Red. masses --      2.6936                 1.2206                 1.6656
 Frc consts  --      0.0804                 0.0399                 0.0649
 IR Inten    --      0.6938                 0.3697                 0.2269

                     13                     14                     15
                      A                      A                      A
 Frequencies --    270.3260               297.2549               346.1710
 Red. masses --      2.1637                 3.6121                 4.4014
 Frc consts  --      0.0932                 0.1880                 0.3108
 IR Inten    --      2.8924                 0.2006                 1.6352

                     16                     17                     18
                      A                      A                      A
 Frequencies --    375.1776               385.5216               431.1726
 Red. masses --      4.0718                 4.3494                 5.4111
 Frc consts  --      0.3377                 0.3809                 0.5927
 IR Inten    --      0.0400                 6.7712                 1.4659

                     19                     20                     21
                      A                      A                      A
 Frequencies --    487.0160               501.2050               525.7032
 Red. masses --      3.9793                 4.1676                 4.8115
 Frc consts  --      0.5561                 0.6168                 0.7835
 IR Inten    --      1.7625                 2.2126                 4.8067

                     22                     23                     24
                      A                      A                      A
 Frequencies --    557.7481               588.6804               610.8348
 Red. masses --      5.7641                 5.5782                 3.5224
 Frc consts  --      1.0565                 1.1390                 0.7743
 IR Inten    --      2.1451                 8.2419                 3.4366

                     25                     26                     27
                      A                      A                      A
 Frequencies --    622.9763               659.6362               702.2646
 Red. masses --      3.6030                 8.0994                 5.3323
 Frc consts  --      0.8239                 2.0764                 1.5494
 IR Inten    --      0.7387                 0.0614                 1.0373

                     28                     29                     30
                      A                      A                      A
 Frequencies --    726.4761               803.7175               811.5179
 Red. masses --      4.5860                 3.9025                 5.4388
 Frc consts  --      1.4260                 1.4852                 2.1103
 IR Inten    --      0.4048                 5.3456                 4.8778

                     31                     32                     33
                      A                      A                      A
 Frequencies --    829.9699               869.9608               872.9044
 Red. masses --      1.5758                 2.2913                 2.4383
 Frc consts  --      0.6396                 1.0217                 1.0946
 IR Inten    --     24.3339                48.7681                44.2760

                     34                     35                     36
                      A                      A                      A
 Frequencies --    875.1709               907.0993               941.5749
 Red. masses --      1.5622                 2.5603                 1.1769
 Frc consts  --      0.7050                 1.2412                 0.6148
 IR Inten    --     23.5667                 0.1472                 0.9578

                     37                     38                     39
                      A                      A                      A
 Frequencies --    961.1841               971.9489               999.6691
 Red. masses --      1.3122                 1.4931                 1.3052
 Frc consts  --      0.7143                 0.8310                 0.7685
 IR Inten    --      0.6862                 0.1110                 0.0079

                     40                     41                     42
                      A                      A                      A
 Frequencies --   1038.8560              1066.1937              1078.5852
 Red. masses --      6.6292                 3.4545                 1.6267
 Frc consts  --      4.2153                 2.3137                 1.1150
 IR Inten    --     13.8010                 3.9576                38.9042

                     43                     44                     45
                      A                      A                      A
 Frequencies --   1095.0194              1126.4904              1144.5783
 Red. masses --      1.8676                 2.3968                 1.7258
 Frc consts  --      1.3194                 1.7920                 1.3321
 IR Inten    --     25.1653                 0.5958                22.5450

                     46                     47                     48
                      A                      A                      A
 Frequencies --   1168.0380              1189.9528              1196.8974
 Red. masses --      1.5035                 2.1532                 3.1795
 Frc consts  --      1.2086                 1.7963                 2.6836
 IR Inten    --      3.3393                10.1661                 2.6202

                     49                     50                     51
                      A                      A                      A
 Frequencies --   1248.4995              1268.8477              1275.6421
 Red. masses --      1.9438                 2.3635                 1.7087
 Frc consts  --      1.7852                 2.2419                 1.6382
 IR Inten    --      5.0907                33.2682                 3.1959

                     52                     53                     54
                      A                      A                      A
 Frequencies --   1321.5127              1335.6069              1355.3683
 Red. masses --      2.3251                 5.6478                 2.8995
 Frc consts  --      2.3924                 5.9359                 3.1382
 IR Inten    --      0.2073                 9.9723                 7.6355

                     55                     56                     57
                      A                      A                      A
 Frequencies --   1361.2074              1386.4326              1413.6319
 Red. masses --      1.3112                 3.1526                 1.2308
 Frc consts  --      1.4315                 3.5704                 1.4491
 IR Inten    --      1.6387                11.5685                 2.7373

                     58                     59                     60
                      A                      A                      A
 Frequencies --   1434.7152              1441.8066              1474.3551
 Red. masses --      1.2373                 3.3874                 3.3280
 Frc consts  --      1.5006                 4.1488                 4.2622
 IR Inten    --      4.2443                30.7978                91.4425

                     61                     62                     63
                      A                      A                      A
 Frequencies --   1501.2396              1506.6314              1518.2437
 Red. masses --      1.0458                 1.0448                 1.0566
 Frc consts  --      1.3886                 1.3973                 1.4349
 IR Inten    --      0.0383                 2.6578                 7.6565

                     64                     65                     66
                      A                      A                      A
 Frequencies --   1524.6735              1529.9115              1591.1902
 Red. masses --      1.0887                 3.0266                 5.0525
 Frc consts  --      1.4912                 4.1738                 7.5370
 IR Inten    --     19.0264                59.7990                 5.2773

                     67                     68                     69
                      A                      A                      A
 Frequencies --   1623.1968              1637.9301              1650.8483
 Red. masses --      8.1970                 6.3648                 6.9775
 Frc consts  --     12.7246                10.0606                11.2038
 IR Inten    --     36.6657                 2.4753               120.6367

                     70                     71                     72
                      A                      A                      A
 Frequencies --   3040.3313              3043.5224              3075.2250
 Red. masses --      1.0356                 1.0371                 1.0849
 Frc consts  --      5.6402                 5.6600                 6.0449
 IR Inten    --     20.8540                28.7511                 0.9265

                     73                     74                     75
                      A                      A                      A
 Frequencies --   3108.1912              3116.3223              3125.5346
 Red. masses --      1.1014                 1.0995                 1.1032
 Frc consts  --      6.2690                 6.2914                 6.3497
 IR Inten    --      2.6993                73.1088                17.8273

                     76                     77                     78
                      A                      A                      A
 Frequencies --   3127.1301              3193.1809              3196.2474
 Red. masses --      1.1030                 1.0883                 1.0888
 Frc consts  --      6.3550                 6.5381                 6.5538
 IR Inten    --     34.1497                17.1582                 1.2595

                     79                     80                     81
                      A                      A                      A
 Frequencies --   3211.1659              3229.2837              3237.6605
 Red. masses --      1.0967                 1.0940                 1.0927
 Frc consts  --      6.6627                 6.7215                 6.7488
 IR Inten    --      7.1178                 1.9426                 1.6560

 - Thermochemistry -
 -------------------
 Temperature   298.150 Kelvin.  Pressure   1.00000 Atm.
 Atom     1 has atomic number  6 and mass  12.00000

 Molecular mass:   341.99885 amu.
 Principal axes and moments of inertia in atomic units:
                                 1                 2                 3
     Eigenvalues --         1196.182487      19776.772717      20470.266822
           X                   0.999973         -0.007197          0.001526
           Y                   0.007188          0.999956          0.006057
           Z                  -0.001570         -0.006046          0.999980
 This molecule is an asymmetric top.
 Rotational symmetry number  1.
 Warning -- assumption of classical behavior for rotation
           may cause significant error
 Rotational temperatures (Kelvin)      0.07241     0.00438     0.00423
 Rotational constants (GHZ):           1.50875     0.09126     0.08816
 Zero-point vibrational energy     585079.7 (Joules/Mol)
                                  139.83740 (Kcal/Mol)
 Warning -- explicit consideration of  24 degrees of freedom as
           vibrations may cause significant error
 Vibrational temperatures:     33.05    45.12    72.18    86.97   147.42
          (Kelvin)            217.41   224.78   263.95   286.50   323.81
                              338.72   369.91   388.94   427.68   498.06
                              539.80   554.68   620.36   700.71   721.12
                              756.37   802.48   846.98   878.86   896.32
                              949.07  1010.40  1045.24  1156.37  1167.59
                             1194.14  1251.68  1255.91  1259.18  1305.11
                             1354.72  1382.93  1398.42  1438.30  1494.68
                             1534.01  1551.84  1575.49  1620.77  1646.79
                             1680.55  1712.08  1722.07  1796.31  1825.59
                             1835.36  1901.36  1921.64  1950.07  1958.47
                             1994.77  2033.90  2064.24  2074.44  2121.27
                             2159.95  2167.71  2184.41  2193.67  2201.20
                             2289.37  2335.42  2356.62  2375.20  4374.36
                             4378.95  4424.56  4471.99  4483.69  4496.95
                             4499.24  4594.28  4598.69  4620.15  4646.22
                             4658.27

 Zero-point correction=                           0.222845 (Hartree/Particle)
 Thermal correction to Energy=                    0.238573
 Thermal correction to Enthalpy=                  0.239518
 Thermal correction to Gibbs Free Energy=         0.176726
 Sum of electronic and zero-point Energies=           -723.159811
 Sum of electronic and thermal Energies=              -723.144083
 Sum of electronic and thermal Enthalpies=            -723.143139
 Sum of electronic and thermal Free Energies=         -723.205930

                     E (Thermal)             CV                S
                      KCal/Mol        Cal/Mol-Kelvin    Cal/Mol-Kelvin
 Total                  149.707             58.544            132.155
 Electronic               0.000              0.000              0.000
 Translational            0.889              2.981             43.383
 Rotational               0.889              2.981             34.537
 Vibrational            147.930             52.582             54.235
 Vibration     1          0.593              1.985              6.360
 Vibration     2          0.594              1.983              5.742
 Vibration     3          0.595              1.978              4.811
 Vibration     4          0.597              1.973              4.443
 Vibration     5          0.605              1.947              3.407
 Vibration     6          0.619              1.901              2.658
 Vibration     7          0.620              1.896              2.595
 Vibration     8          0.631              1.862              2.293
 Vibration     9          0.637              1.841              2.141
 Vibration    10          0.650              1.803              1.918
 Vibration    11          0.655              1.787              1.837
 Vibration    12          0.667              1.751              1.681
 Vibration    13          0.674              1.728              1.594
 Vibration    14          0.691              1.679              1.432
 Vibration    15          0.724              1.583              1.184
 Vibration    16          0.746              1.523              1.059
 Vibration    17          0.754              1.501              1.017
 Vibration    18          0.792              1.402              0.855
 Vibration    19          0.843              1.279              0.691
 Vibration    20          0.857              1.247              0.655
 Vibration    21          0.881              1.193              0.597
 Vibration    22          0.913              1.123              0.528
 Vibration    23          0.946              1.056              0.470
 Vibration    24          0.970              1.009              0.431

                           ! Non-Optimized Parameters !
 Normal termination of Gaussian 16 at Wed Aug 14 20:14:45 2024.

 ----------------------------------------------------------------------
 # M062X gen pseudo=read int=(grid=ultrafine) pop=nbo7 polar prop=efg v
 olume guess=read geom=check
 ----------------------------------------------------------------------

 ----------
 pyrdz1.xyz
 ----------
 Structure from the checkpoint file:  "pyrdz1_conf-4.chk"
 Charge =  0 Multiplicity = 1

 SCF Done:  E(RM062X) =  -723.262021287     A.U. after   13 cycles

  Exact polarizability:     326.891      -0.579     154.391       0.385      -5.330     112.631
 Approx polarizability:     321.663       1.859     225.138      -0.516     -16.519     156.676

 Summary of Natural Population Analysis:

                                     Natural Population
             Natural    ---------------------------------------------
  Atom No    Charge        Core      Valence    Rydberg      Total
 --------------------------------------------------------------------
    C  1   -0.59697      1.99999     4.58835    0.00863     6.59697
    C  2   -0.25525      1.99999     4.24207    0.01319     6.25525
    C  3   -0.59700      1.99999     4.58839    0.00862     6.59700
    C  4    0.19084      1.99999     3.78605    0.02312     5.80916
    N  5   -0.21237      1.99999     5.17803    0.03436     7.21237
    N  6   -0.18413      1.99999     5.15059    0.03354     7.18413
    C  7    0.13597      1.99999     3.84225    0.02178     5.86403
    C  8   -0.13759      1.99999     4.11785    0.01975     6.13759
    C  9   -0.16379      1.99999     4.14865    0.01515     6.16379
    C 10   -0.27072      1.99999     4.25106    0.01966     6.27072
    C 11   -0.13378      1.99999     4.10790    0.02588     6.13378
    I 12    0.17335     46.00000     6.82171    0.00494    52.82665
    C 13   -0.31758      1.99999     4.29619    0.02141     6.31758
    C 14    0.43997      1.99999     3.53680    0.02324     5.56003
    F 15   -0.30035      2.00000     7.28976    0.01060     9.30035
    C 16   -0.19507      1.99999     4.17933    0.01574     6.19507
    C 17   -0.21517      1.99999     4.19895    0.01623     6.21517
    H 18    0.21372      0.00000     0.78524    0.00105     0.78628
    H 19    0.21793      0.00000     0.78112    0.00095     0.78207
    H 20    0.19743      0.00000     0.80128    0.00129     0.80257
    H 21    0.22975      0.00000     0.76789    0.00236     0.77025
    H 22    0.19738      0.00000     0.80133    0.00129     0.80262
    H 23    0.21388      0.00000     0.78507    0.00105     0.78612
    H 24    0.21715      0.00000     0.78190    0.00096     0.78285
    H 25    0.22244      0.00000     0.77627    0.00129     0.77756
    H 26    0.23338      0.00000     0.76512    0.00150     0.76662
    H 27    0.24733      0.00000     0.75099    0.00168     0.75267
    H 28    0.22571      0.00000     0.77287    0.00142     0.77429
    H 29    0.22353      0.00000     0.77484    0.00163     0.77647
 ====================================================================
 * Total *  0.00000     77.99988    87.66782    0.33230   166.00000

 Normal termination of Gaussian 16 at Wed Aug 14 20:27:26 2024.
 Gaussian 16:  ES64L-G16RevC.01  3-Jul-2019

 ----------------------------------------------------------------------
 # M062X gen pseudo=read int=(grid=ultrafine) nmr=giao guess=read geom=
 check
 ----------------------------------------------------------------------

 ----------
 pyrdz1.xyz
 ----------
 Structure from the checkpoint file:  "pyrdz1_conf-4.chk"
 Charge =  0 Multiplicity = 1

                         Standard orientation:
 ---------------------------------------------------------------------
 Center     Atomic      Atomic             Coordinates (Angstroms)
 Number     Number       Type             X           Y           Z
 ---------------------------------------------------------------------
      1          6           0        6.641957    0.473213    1.083843
      2          6           0        5.979319    0.166543   -0.269076
      3          6           0        6.603299   -1.073435   -0.929776
      4          6           0        4.480689    0.016849   -0.125149
      5          7           0        3.733834    0.911186   -0.789684
      6          7           0        2.406007    0.865281   -0.731046
      7          6           0        1.796808   -0.076492    0.005805
      8          6           0        0.316694   -0.078040    0.002941
      9          6           0       -0.399209   -1.280169   -0.083337
     10          6           0       -1.791645   -1.314425   -0.089747
     11          6           0       -2.491338   -0.112640   -0.003702
     12         53           0       -4.628796   -0.131944   -0.015231
     13          6           0       -1.824247    1.104779    0.090971
     14          6           0       -0.433558    1.101447    0.092700
     15          9           0        0.186847    2.282428    0.225375
     16          6           0        2.521538   -1.036925    0.732034
     17          6           0        3.897449   -0.990542    0.658600
     18          1           0        7.715816    0.639081    0.953396
     19          1           0        6.210711    1.368095    1.541403
     20          1           0        6.518654   -0.358994    1.786060
     21          1           0        6.122320    1.026002   -0.931733
     22          1           0        6.478291   -1.964328   -0.303964
     23          1           0        7.676835   -0.924772   -1.081848
     24          1           0        6.145203   -1.276445   -1.901993
     25          1           0        0.151949   -2.210913   -0.173825
     26          1           0       -2.315688   -2.258489   -0.170058
     27          1           0       -2.346796    2.049222    0.171156
     28          1           0        2.006429   -1.772846    1.340302
     29          1           0        4.515418   -1.700688    1.198435
 ---------------------------------------------------------------------

 SCF Done:  E(RM062X) =  -723.262021287     A.U. after    1 cycles

      1  C    Isotropic =   160.9775   Anisotropy =    33.8713

      2  C    Isotropic =   145.2809   Anisotropy =    29.1682

      3  C    Isotropic =   161.0661   Anisotropy =    33.4694

      4  C    Isotropic =   -11.2698   Anisotropy =   240.8346

      5  N    Isotropic =  -279.9666   Anisotropy =   727.5470

      6  N    Isotropic =  -297.8096   Anisotropy =   777.4881

      7  C    Isotropic =     0.3576   Anisotropy =   214.1153

      8  C    Isotropic =    36.5449   Anisotropy =   183.2963

      9  C    Isotropic =    32.7488   Anisotropy =   194.0782

     10  C    Isotropic =    33.2439   Anisotropy =   174.9747

     11  C    Isotropic =    22.4578   Anisotropy =   157.3560

     12  I    Isotropic =    45.3524   Anisotropy =    27.6011

     13  C    Isotropic =    40.1337   Anisotropy =   150.7183

     14  C    Isotropic =     1.9026   Anisotropy =   125.8876

     15  F    Isotropic =   282.2008   Anisotropy =   160.0856

     16  C    Isotropic =    40.6446   Anisotropy =   204.3865

     17  C    Isotropic =    43.1976   Anisotropy =   216.4152

     18  H    Isotropic =    30.5002   Anisotropy =     9.6215

     19  H    Isotropic =    30.5023   Anisotropy =     8.9813

     20  H    Isotropic =    30.7727   Anisotropy =     6.8138

     21  H    Isotropic =    27.8896   Anisotropy =     9.4360

     22  H    Isotropic =    30.7565   Anisotropy =     6.9824

     23  H    Isotropic =    30.4974   Anisotropy =     9.6076

     24  H    Isotropic =    30.5229   Anisotropy =     8.8692

     25  H    Isotropic =    23.9053   Anisotropy =     8.9137

     26  H    Isotropic =    23.9603   Anisotropy =     9.9046

     27  H    Isotropic =    23.9346   Anisotropy =    10.0744

     28  H    Isotropic =    23.9170   Anisotropy =    11.5918

     29  H    Isotropic =    23.9444   Anisotropy =    12.3278

 The electronic state is 1-A.
 Alpha  occ. eigenvalues --  -25.26276 -14.79030 -14.78820 -10.64932 -10.61372
 Alpha  occ. eigenvalues --  -10.60355 -10.59395 -10.58020 -10.57850 -10.57697
 Alpha  occ. eigenvalues --  -10.57461 -10.57020 -10.56842 -10.55528 -10.53755
 Alpha  occ. eigenvalues --  -10.53718  -1.37956  -1.13344  -0.99792  -0.95855
 Alpha  occ. eigenvalues --   -0.93865  -0.89159  -0.87178  -0.86550  -0.78724
 Alpha  occ. eigenvalues --   -0.78517  -0.75871  -0.74541  -0.72206  -0.70057
 Alpha  occ. eigenvalues --   -0.67014  -0.63178  -0.60937  -0.60258  -0.58567
 Alpha  occ. eigenvalues --   -0.57460  -0.56968  -0.53033  -0.52510  -0.51878
 Alpha  occ. eigenvalues --   -0.51796  -0.50515  -0.49844  -0.48309  -0.47905
 Alpha  occ. eigenvalues --   -0.46315  -0.45951  -0.45245  -0.44153  -0.41590
 Alpha  occ. eigenvalues --   -0.40450  -0.40261  -0.37850  -0.37479  -0.36692
 Alpha  occ. eigenvalues --   -0.33346  -0.32431  -0.32072  -0.30772  -0.29077
 Alpha virt. eigenvalues --   -0.03141  -0.02389  -0.01494   0.00198   0.02533
 Alpha virt. eigenvalues --    0.05092   0.05742   0.05887   0.06098   0.07715
 Alpha virt. eigenvalues --    0.08942   0.10587   0.10607   0.11703   0.11872

 Mulliken charges:
               1
     1  C   -0.429234
     2  C   -0.188093
     3  C   -0.428864
     4  C    0.150659
     5  N   -0.137492
     6  N   -0.132830
     7  C    0.123769
     8  C   -0.018156
     9  C   -0.181273
    10  C   -0.062753
    11  C   -0.354208
    12  I    0.085633
    13  C   -0.109271
    14  C    0.269556
    15  F   -0.177196
    16  C   -0.205238
    17  C   -0.167365
    18  H    0.150113
    19  H    0.161006
    20  H    0.134309
    21  H    0.153551
    22  H    0.134115
    23  H    0.150333
    24  H    0.159745
    25  H    0.178066
    26  H    0.187395
    27  H    0.194790
    28  H    0.179805
    29  H    0.179127
 Sum of Mulliken charges =  -0.00000

 Dipole moment (field-independent basis, Debye):
    X=              1.7218    Y=             -3.8921    Z=              2.0625  Tot=              4.7294
 Quadrupole moment (field-independent basis, Debye-Ang):
   XX=            -98.5137   YY=           -112.7309   ZZ=           -117.7621
   XY=             -9.7375   XZ=              6.2192   YZ=              1.0443

 Normal termination of Gaussian 16 at Wed Aug 14 20:32:42 2024.
