 Gaussian 16, Revision C.01,

 ----------------------------------------------------------------------
 # B3LYP/6-31G(d,p) symmetry=loose empiricaldispersion=GD3BJ int=(grid=
 ultrafine) opt freq=noraman
 ----------------------------------------------------------------------

 ----------
 pyrd10.xyz
 ----------
 Symbolic Z-matrix:
 Charge =  0 Multiplicity = 1

 SCF Done:  E(RB3LYP) =  -2937.38384819     A.U. after   14 cycles
 SCF Done:  E(RB3LYP) =  -2937.38583468     A.U. after   14 cycles
 SCF Done:  E(RB3LYP) =  -2937.38502813     A.U. after   14 cycles
 SCF Done:  E(RB3LYP) =  -2937.38624950     A.U. after   12 cycles
 SCF Done:  E(RB3LYP) =  -2937.38652113     A.U. after   12 cycles
 SCF Done:  E(RB3LYP) =  -2937.38657174     A.U. after   11 cycles
 SCF Done:  E(RB3LYP) =  -2937.38658142     A.U. after   11 cycles
 SCF Done:  E(RB3LYP) =  -2937.38658424     A.U. after    9 cycles
 SCF Done:  E(RB3LYP) =  -2937.38658478     A.U. after    8 cycles
 Optimization completed.
    -- Stationary point found.
 Normal termination of Gaussian 16 at Wed Aug 14 18:47:36 2024.

 ----------------------------------------------------------------------
 #N Geom=AllCheck Guess=TCheck SCRF=Check GenChk RB3LYP/6-31G(d,p) Freq
 ----------------------------------------------------------------------

 Structure from the checkpoint file:  "pyrd10_conf-12.chk"
 ----------
 pyrd10.xyz
 ----------
 Charge =  0 Multiplicity = 1

 SCF Done:  E(RB3LYP) =  -2937.38658478     A.U. after    1 cycles

                      1                      2                      3
                      A                      A                      A
 Frequencies --     39.6418                58.6564                65.6721
 Red. masses --      3.8627                 7.1338                 3.7300
 Frc consts  --      0.0036                 0.0145                 0.0095
 IR Inten    --      0.6449                 0.5093                 1.9973

                      4                      5                      6
                      A                      A                      A
 Frequencies --    138.5047               246.9221               265.7127
 Red. masses --      5.5463                 2.8708                 3.0079
 Frc consts  --      0.0627                 0.1031                 0.1251
 IR Inten    --      0.4533                 0.6678                 1.5409

                      7                      8                      9
                      A                      A                      A
 Frequencies --    356.1767               404.6266               418.6532
 Red. masses --      2.0434                 2.6113                 2.9060
 Frc consts  --      0.1527                 0.2519                 0.3001
 IR Inten    --      1.4156                 2.3540                 0.7014

                     10                     11                     12
                      A                      A                      A
 Frequencies --    502.6605               552.1187               589.5538
 Red. masses --      4.0650                 3.1559                 4.0780
 Frc consts  --      0.6051                 0.5668                 0.8351
 IR Inten    --      0.1382                 9.8048                 3.6220

                     13                     14                     15
                      A                      A                      A
 Frequencies --    644.3817               732.3101               786.8374
 Red. masses --      6.6737                 1.9944                 3.5970
 Frc consts  --      1.6327                 0.6302                 1.3121
 IR Inten    --      3.3192                19.8215                 1.1273

                     16                     17                     18
                      A                      A                      A
 Frequencies --    813.1883               833.0841               881.3021
 Red. masses --      1.5822                 1.6356                 2.2011
 Frc consts  --      0.6165                 0.6688                 1.0073
 IR Inten    --     13.4103                 3.1546                 4.2365

                     19                     20                     21
                      A                      A                      A
 Frequencies --    933.7249               947.2374               973.2117
 Red. masses --      1.6252                 1.4332                 1.6765
 Frc consts  --      0.8348                 0.7576                 0.9356
 IR Inten    --      7.2601                 1.2515                 2.0804

                     22                     23                     24
                      A                      A                      A
 Frequencies --    995.1507              1017.0318              1046.9302
 Red. masses --      1.3695                 1.7978                 3.7929
 Frc consts  --      0.7991                 1.0956                 2.4494
 IR Inten    --      0.0950                 1.0193                10.8997

                     25                     26                     27
                      A                      A                      A
 Frequencies --   1064.9714              1077.9874              1128.4670
 Red. masses --      2.4907                 2.3294                 1.2433
 Frc consts  --      1.6644                 1.5949                 0.9329
 IR Inten    --      1.0124                 0.4896                 1.6473

                     28                     29                     30
                      A                      A                      A
 Frequencies --   1157.7087              1218.3423              1229.1888
 Red. masses --      1.2520                 1.2327                 1.6474
 Frc consts  --      0.9887                 1.0781                 1.4666
 IR Inten    --      5.1692                 6.5829                 3.5863

                     31                     32                     33
                      A                      A                      A
 Frequencies --   1254.1163              1265.4890              1303.3548
 Red. masses --      1.7475                 1.3677                 1.2209
 Frc consts  --      1.6194                 1.2905                 1.2220
 IR Inten    --      1.6436                 5.0753                30.2034

                     34                     35                     36
                      A                      A                      A
 Frequencies --   1318.8641              1370.0669              1387.6069
 Red. masses --      4.4048                 1.3451                 1.3476
 Frc consts  --      4.5142                 1.4876                 1.5288
 IR Inten    --      0.2797                 2.7284                 1.5313

                     37                     38                     39
                      A                      A                      A
 Frequencies --   1393.0622              1471.9055              1485.1613
 Red. masses --      1.3866                 2.2289                 1.0964
 Frc consts  --      1.5854                 2.8452                 1.4249
 IR Inten    --      3.2386                22.4255                 6.3234

                     40                     41                     42
                      A                      A                      A
 Frequencies --   1489.3028              1503.9389              1525.6015
 Red. masses --      1.1177                 1.1130                 2.2457
 Frc consts  --      1.4606                 1.4832                 3.0795
 IR Inten    --      5.2490                 4.8400                 9.8189

                     43                     44                     45
                      A                      A                      A
 Frequencies --   1631.6351              1653.0431              3028.9527
 Red. masses --      5.3076                 5.8752                 1.0659
 Frc consts  --      8.3252                 9.4589                 5.7620
 IR Inten    --     11.5244                 3.0160                17.4080

                     46                     47                     48
                      A                      A                      A
 Frequencies --   3040.7892              3076.1160              3092.9960
 Red. masses --      1.0609                 1.1024                 1.0929
 Frc consts  --      5.7795                 6.1461                 6.1604
 IR Inten    --     42.3633                10.8033                10.3644

                     49                     50                     51
                      A                      A                      A
 Frequencies --   3109.0900              3144.1053              3165.7226
 Red. masses --      1.0631                 1.0896                 1.0891
 Frc consts  --      6.0545                 6.3463                 6.4306
 IR Inten    --     24.2852                33.4112                15.2946

                     52                     53                     54
                      A                      A                      A
 Frequencies --   3174.5029              3176.1275              3206.6232
 Red. masses --      1.1106                 1.0900                 1.0964
 Frc consts  --      6.5941                 6.4787                 6.6420
 IR Inten    --      5.4873                17.6834                18.8284

 - Thermochemistry -
 -------------------
 Temperature   298.150 Kelvin.  Pressure   1.00000 Atm.
 Atom     1 has atomic number 35 and mass  78.91834

 Molecular mass:   198.99966 amu.
 Principal axes and moments of inertia in atomic units:
                                 1                 2                 3
     Eigenvalues --         1302.728517       2449.704075       3072.467369
           X                   0.995541         -0.092816         -0.016825
           Y                   0.092846          0.995680          0.001027
           Z                   0.016657         -0.002585          0.999858
 This molecule is an asymmetric top.
 Rotational symmetry number  1.
 Warning -- assumption of classical behavior for rotation
           may cause significant error
 Rotational temperatures (Kelvin)      0.06649     0.03536     0.02819
 Rotational constants (GHZ):           1.38535     0.73672     0.58739
 Zero-point vibrational energy     432977.2 (Joules/Mol)
                                  103.48403 (Kcal/Mol)
 Warning -- explicit consideration of  12 degrees of freedom as
           vibrations may cause significant error
 Vibrational temperatures:     57.04    84.39    94.49   199.28   355.27
          (Kelvin)            382.30   512.46   582.17   602.35   723.22
                              794.38   848.24   927.12  1053.63  1132.08
                             1170.00  1198.62  1268.00  1343.42  1362.86
                             1400.23  1431.80  1463.28  1506.30  1532.26
                             1550.98  1623.61  1665.68  1752.92  1768.53
                             1804.39  1820.76  1875.24  1897.55  1971.22
                             1996.46  2004.31  2117.74  2136.82  2142.77
                             2163.83  2195.00  2347.56  2378.36  4357.99
                             4375.02  4425.84  4450.13  4473.29  4523.67
                             4554.77  4567.40  4569.74  4613.62

 Zero-point correction=                           0.164912 (Hartree/Particle)
 Thermal correction to Energy=                    0.174356
 Thermal correction to Enthalpy=                  0.175300
 Thermal correction to Gibbs Free Energy=         0.127836
 Sum of electronic and zero-point Energies=          -2937.221672
 Sum of electronic and thermal Energies=             -2937.212229
 Sum of electronic and thermal Enthalpies=           -2937.211285
 Sum of electronic and thermal Free Energies=        -2937.258749

                     E (Thermal)             CV                S
                      KCal/Mol        Cal/Mol-Kelvin    Cal/Mol-Kelvin
 Total                  109.410             34.611             99.896
 Electronic               0.000              0.000              0.000
 Translational            0.889              2.981             41.769
 Rotational               0.889              2.981             30.662
 Vibrational            107.633             28.649             27.465
 Vibration     1          0.594              1.981              5.277
 Vibration     2          0.596              1.974              4.502
 Vibration     3          0.597              1.971              4.279
 Vibration     4          0.614              1.915              2.824
 Vibration     5          0.661              1.768              1.752
 Vibration     6          0.672              1.736              1.624
 Vibration     7          0.732              1.563              1.139
 Vibration     8          0.770              1.460              0.946
 Vibration     9          0.782              1.430              0.897
 Vibration    10          0.858              1.244              0.652
 Vibration    11          0.907              1.135              0.540
 Vibration    12          0.947              1.054              0.468

 Optimization completed.
    -- Stationary point found.
 Normal termination of Gaussian 16 at Wed Aug 14 18:48:52 2024.

 ----------------------------------------------------------------------
 # M062X/def2tzvp int=(grid=ultrafine) pop=nbo7 polar prop=efg volume g
 uess=read geom=check
 ----------------------------------------------------------------------

 ----------
 pyrd10.xyz
 ----------
 Structure from the checkpoint file:  "pyrd10_conf-12.chk"
 Charge =  0 Multiplicity = 1

 SCF Done:  E(RM062X) =  -2939.78564252     A.U. after   11 cycles

  Exact polarizability:     115.985     -21.966     117.692      -4.513       1.053     105.272
 Approx polarizability:     135.822     -30.979     156.040      -6.056       1.757     154.036

 Summary of Natural Population Analysis:

                                     Natural Population
             Natural    ---------------------------------------------
  Atom No    Charge        Core      Valence    Rydberg      Total
 --------------------------------------------------------------------
   Br  1   -0.04093     27.99996     7.02984    0.01112    35.04093
    C  2   -0.40475      1.99999     4.38541    0.01935     6.40475
    C  3   -0.41725      1.99999     4.40414    0.01313     6.41725
    C  4   -0.41876      1.99999     4.40563    0.01315     6.41876
    C  5   -0.06050      1.99999     4.04168    0.01882     6.06050
    C  6    0.03432      1.99999     3.94263    0.02306     5.96568
    N  7   -0.40999      1.99999     5.37789    0.03212     7.40999
    C  8    0.02490      1.99999     3.95249    0.02262     5.97510
    C  9   -0.24856      1.99999     4.23224    0.01632     6.24856
    C 10   -0.17405      1.99999     4.15664    0.01742     6.17405
    H 11    0.22370      0.00000     0.77474    0.00156     0.77630
    H 12    0.21458      0.00000     0.78326    0.00215     0.78542
    H 13    0.21459      0.00000     0.78329    0.00212     0.78541
    H 14    0.21827      0.00000     0.78028    0.00145     0.78173
    H 15    0.20961      0.00000     0.78851    0.00188     0.79039
    H 16    0.22109      0.00000     0.77726    0.00165     0.77891
    H 17    0.18689      0.00000     0.81137    0.00173     0.81311
    H 18    0.19425      0.00000     0.80433    0.00143     0.80575
    H 19    0.22022      0.00000     0.77863    0.00115     0.77978
    H 20    0.21238      0.00000     0.78610    0.00152     0.78762
 ====================================================================
 * Total *  0.00000     45.99989    53.79635    0.20375   100.00000

 Normal termination of Gaussian 16 at Wed Aug 14 18:53:00 2024.
 Gaussian 16:  ES64L-G16RevC.01  3-Jul-2019

 --------------------------------------------------------------------
 # M062X/def2tzvp int=(grid=ultrafine) nmr=giao guess=read geom=check
 --------------------------------------------------------------------

 ----------
 pyrd10.xyz
 ----------
 Structure from the checkpoint file:  "pyrd10_conf-12.chk"
 Charge =  0 Multiplicity = 1

                         Standard orientation:
 ---------------------------------------------------------------------
 Center     Atomic      Atomic             Coordinates (Angstroms)
 Number     Number       Type             X           Y           Z
 ---------------------------------------------------------------------
      1         35           0       -1.443575   -1.118601   -0.088689
      2          6           0       -2.103913    0.685352    0.398220
      3          6           0       -1.410775    1.802687   -0.369630
      4          6           0       -0.015131    2.195259    0.153627
      5          6           0        1.012629    1.094103    0.079855
      6          6           0        1.435162    0.422676    1.231549
      7          7           0        2.295956   -0.599092    1.240845
      8          6           0        2.778399   -1.001285    0.060120
      9          6           0        2.443275   -0.395984   -1.152072
     10          6           0        1.548607    0.668210   -1.138013
     11          1           0       -3.169805    0.648413    0.179558
     12          1           0       -1.956061    0.764981    1.475806
     13          1           0       -1.359973    1.533379   -1.429783
     14          1           0       -2.058693    2.687274   -0.301674
     15          1           0       -0.110789    2.530689    1.193256
     16          1           0        0.329898    3.062493   -0.421854
     17          1           0        1.047108    0.729541    2.202553
     18          1           0        3.471424   -1.839823    0.083565
     19          1           0        2.872760   -0.756290   -2.081201
     20          1           0        1.258033    1.157912   -2.063954
 ---------------------------------------------------------------------

 SCF Done:  E(RM062X) =  -2939.78564252     A.U. after    1 cycles

      1  Br   Isotropic =  2268.8803   Anisotropy =   922.5378

      2  C    Isotropic =   139.9735   Anisotropy =    36.5441

      3  C    Isotropic =   148.3805   Anisotropy =     8.4829

      4  C    Isotropic =   148.2874   Anisotropy =    15.2911

      5  C    Isotropic =    27.3206   Anisotropy =   228.7155

      6  C    Isotropic =     9.6367   Anisotropy =   184.5757

      7  N    Isotropic =  -154.4481   Anisotropy =   677.1874

      8  C    Isotropic =    11.9760   Anisotropy =   205.9862

      9  C    Isotropic =    42.1065   Anisotropy =   205.9191

     10  C    Isotropic =    26.3592   Anisotropy =   228.1299

     11  H    Isotropic =    28.3752   Anisotropy =    12.0650

     12  H    Isotropic =    28.7761   Anisotropy =     9.4473

     13  H    Isotropic =    29.9277   Anisotropy =     6.4805

     14  H    Isotropic =    29.6721   Anisotropy =     9.8250

     15  H    Isotropic =    29.2570   Anisotropy =     7.4679

     16  H    Isotropic =    28.7864   Anisotropy =     8.3942

     17  H    Isotropic =    22.4516   Anisotropy =     9.2165

     18  H    Isotropic =    22.3889   Anisotropy =     6.5771

     19  H    Isotropic =    23.9974   Anisotropy =     6.1849

     20  H    Isotropic =    23.6429   Anisotropy =     8.9820

 The electronic state is 1-A.
 Alpha  occ. eigenvalues -- -485.35661 -63.34152 -57.16098 -57.15858 -57.15852
 Alpha  occ. eigenvalues --  -14.74521 -10.59989 -10.57211 -10.57147 -10.56075
 Alpha  occ. eigenvalues --  -10.55747 -10.55638 -10.55599 -10.54908  -9.00780
 Alpha  occ. eigenvalues --   -6.83186  -6.82312  -6.82288  -2.86552  -2.86245
 Alpha  occ. eigenvalues --   -2.86223  -2.85407  -2.85406  -1.04833  -0.94020
 Alpha  occ. eigenvalues --   -0.90269  -0.87230  -0.83737  -0.77153  -0.71640
 Alpha  occ. eigenvalues --   -0.70520  -0.66866  -0.59700  -0.56603  -0.55023
 Alpha  occ. eigenvalues --   -0.54183  -0.51134  -0.49502  -0.47338  -0.47010
 Alpha  occ. eigenvalues --   -0.46798  -0.44190  -0.42584  -0.42025  -0.39942
 Alpha  occ. eigenvalues --   -0.34888  -0.33561  -0.32768  -0.32072  -0.30007
 Alpha virt. eigenvalues --    0.00107   0.01640   0.02999   0.06102   0.07952
 Alpha virt. eigenvalues --    0.09103   0.10005   0.11239   0.12040   0.13120
 Alpha virt. eigenvalues --    0.13809   0.14377   0.15644   0.16002   0.17382

 Mulliken charges:
               1
     1  Br  -0.131819
     2  C   -0.238561
     3  C   -0.259284
     4  C   -0.410347
     5  C    0.126248
     6  C   -0.105491
     7  N   -0.212273
     8  C   -0.062726
     9  C   -0.133128
    10  C   -0.156547
    11  H    0.176136
    12  H    0.169719
    13  H    0.169532
    14  H    0.149192
    15  H    0.173320
    16  H    0.170007
    17  H    0.141445
    18  H    0.142366
    19  H    0.139382
    20  H    0.152827
 Sum of Mulliken charges =  -0.00000

 Dipole moment (field-independent basis, Debye):
    X=             -1.3817    Y=              3.0461    Z=             -1.5641  Tot=              3.6925
 Quadrupole moment (field-independent basis, Debye-Ang):
   XX=            -72.8984   YY=            -70.4019   ZZ=            -72.0070
   XY=             -5.6482   XZ=             -7.0026   YZ=              2.3877

 Normal termination of Gaussian 16 at Wed Aug 14 18:54:38 2024.
