 Gaussian 16, Revision C.01,

 ----------------------------------------------------------------------
 # B3LYP/6-31G(d,p) symmetry=loose empiricaldispersion=GD3BJ int=(grid=
 ultrafine) opt freq=noraman
 ----------------------------------------------------------------------

 ---------
 pyrd2.xyz
 ---------
 Symbolic Z-matrix:
 Charge =  0 Multiplicity = 1

 SCF Done:  E(RB3LYP) =  -747.234453462     A.U. after   14 cycles
 SCF Done:  E(RB3LYP) =  -747.237427144     A.U. after   12 cycles
 SCF Done:  E(RB3LYP) =  -747.237794258     A.U. after   11 cycles
 SCF Done:  E(RB3LYP) =  -747.237835483     A.U. after   10 cycles
 SCF Done:  E(RB3LYP) =  -747.237837739     A.U. after    9 cycles
 Optimization completed.
    -- Stationary point found.
 Normal termination of Gaussian 16 at Wed Aug 14 18:50:42 2024.

 ----------------------------------------------------------------------
 #N Geom=AllCheck Guess=TCheck SCRF=Check GenChk RB3LYP/6-31G(d,p) Freq
 ----------------------------------------------------------------------

 Structure from the checkpoint file:  "pyrd2_conf-1.chk"
 ---------
 pyrd2.xyz
 ---------
 Charge =  0 Multiplicity = 1

 SCF Done:  E(RB3LYP) =  -747.237838589     A.U. after    4 cycles

                      1                      2                      3
                     A"                     A"                     A"
 Frequencies --    141.0120               156.2026               255.7551
 Red. masses --      4.2175                 1.0505                 3.4570
 Frc consts  --      0.0494                 0.0151                 0.1332
 IR Inten    --      0.0596                 0.5521                 2.4493

                      4                      5                      6
                     A'                     A'                     A'
 Frequencies --    255.9547               388.6292               442.7987
 Red. masses --      4.6863                 6.0974                 4.8080
 Frc consts  --      0.1809                 0.5426                 0.5554
 IR Inten    --      0.5539                 3.2540                 5.7259

                      7                      8                      9
                     A"                     A"                     A'
 Frequencies --    456.8442               530.6035               563.7882
 Red. masses --      3.9778                 3.3861                 5.9144
 Frc consts  --      0.4891                 0.5617                 1.1076
 IR Inten    --      0.2440                 0.2265                 2.3622

                     10                     11                     12
                     A'                     A"                     A"
 Frequencies --    694.0005               751.1066               809.0262
 Red. masses --      7.0166                 5.6692                 1.2061
 Frc consts  --      1.9911                 1.8844                 0.4651
 IR Inten    --     22.2242                 5.5714                24.9750

                     13                     14                     15
                     A'                     A"                     A"
 Frequencies --    827.9535               952.9933               987.7468
 Red. masses --      5.7836                 1.3274                 1.3350
 Frc consts  --      2.3360                 0.7103                 0.7674
 IR Inten    --     11.5078                 0.0035                 0.2397

                     16                     17                     18
                     A'                     A"                     A'
 Frequencies --   1015.5693              1067.9916              1090.2463
 Red. masses --      1.5129                 1.5098                 3.4205
 Frc consts  --      0.9194                 1.0146                 2.3954
 IR Inten    --     10.7259                 3.3232                43.1716

                     19                     20                     21
                     A'                     A'                     A'
 Frequencies --   1099.1603              1157.6965              1237.4241
 Red. masses --      3.1240                 1.3902                 2.3768
 Frc consts  --      2.2237                 1.0977                 2.1443
 IR Inten    --     57.8280                 9.8214                20.4501

                     22                     23                     24
                     A'                     A'                     A'
 Frequencies --   1302.5030              1320.7482              1432.0566
 Red. masses --      1.7621                 5.5233                 1.2403
 Frc consts  --      1.7613                 5.6766                 1.4986
 IR Inten    --      0.1244                 1.3145                 0.9602

                     25                     26                     27
                     A'                     A'                     A"
 Frequencies --   1443.3313              1488.3900              1492.0968
 Red. masses --      2.3937                 2.0857                 1.0426
 Frc consts  --      2.9380                 2.7222                 1.3676
 IR Inten    --     88.3066                17.0344                 6.4989

                     28                     29                     30
                     A'                     A'                     A'
 Frequencies --   1510.4422              1617.1333              1644.1939
 Red. masses --      1.2081                 5.0948                 6.6675
 Frc consts  --      1.6239                 7.8500                10.6198
 IR Inten    --     20.1295                35.2120                20.8936

                     31                     32                     33
                     A'                     A"                     A'
 Frequencies --   3052.2657              3113.8840              3136.3563
 Red. masses --      1.0359                 1.1008                 1.1033
 Frc consts  --      5.6863                 6.2887                 6.3944
 IR Inten    --     14.2996                 8.9306                14.5593

                     34                     35                     36
                     A'                     A'                     A'
 Frequencies --   3181.1884              3188.5998              3217.1457
 Red. masses --      1.0888                 1.0907                 1.0967
 Frc consts  --      6.4921                 6.5337                 6.6877
 IR Inten    --     10.4072                15.5262                14.5473

 - Thermochemistry -
 -------------------
 Temperature   298.150 Kelvin.  Pressure   1.00000 Atm.
 Atom     1 has atomic number 17 and mass  34.96885

 Molecular mass:   127.01888 amu.
 Principal axes and moments of inertia in atomic units:
                                 1                 2                 3
     Eigenvalues --          625.835146       1143.654115       1758.379852
           X                   0.950656         -0.310246          0.000000
           Y                   0.310246          0.950656          0.000000
           Z                  -0.000000         -0.000000          1.000000
 This molecule is an asymmetric top.
 Rotational symmetry number  1.
 Warning -- assumption of classical behavior for rotation
           may cause significant error
 Rotational temperatures (Kelvin)      0.13840     0.07573     0.04926
 Rotational constants (GHZ):           2.88373     1.57805     1.02637
 Zero-point vibrational energy     281259.0 (Joules/Mol)
                                   67.22252 (Kcal/Mol)
 Warning -- explicit consideration of   9 degrees of freedom as
           vibrations may cause significant error
 Vibrational temperatures:    202.88   224.74   367.97   368.26   559.15
          (Kelvin)            637.09   657.30   763.42   811.17   998.51
                             1080.67  1164.01  1191.24  1371.14  1421.15
                             1461.18  1536.60  1568.62  1581.45  1665.67
                             1780.38  1874.01  1900.26  2060.41  2076.63
                             2141.46  2146.79  2173.19  2326.69  2365.63
                             4391.53  4480.18  4512.52  4577.02  4587.68
                             4628.76

 Zero-point correction=                           0.107126 (Hartree/Particle)
 Thermal correction to Energy=                    0.114080
 Thermal correction to Enthalpy=                  0.115024
 Thermal correction to Gibbs Free Energy=         0.075501
 Sum of electronic and zero-point Energies=           -747.130713
 Sum of electronic and thermal Energies=              -747.123759
 Sum of electronic and thermal Enthalpies=            -747.122814
 Sum of electronic and thermal Free Energies=         -747.162338

                     E (Thermal)             CV                S
                      KCal/Mol        Cal/Mol-Kelvin    Cal/Mol-Kelvin
 Total                   71.586             25.871             83.183
 Electronic               0.000              0.000              0.000
 Translational            0.889              2.981             40.431
 Rotational               0.889              2.981             28.622
 Vibrational             69.809             19.909             14.130
 Vibration     1          0.615              1.912              2.790
 Vibration     2          0.620              1.896              2.595
 Vibration     3          0.666              1.753              1.691
 Vibration     4          0.666              1.753              1.689
 Vibration     5          0.757              1.494              1.005
 Vibration     6          0.802              1.377              0.818
 Vibration     7          0.815              1.346              0.775
 Vibration     8          0.886              1.182              0.586
 Vibration     9          0.920              1.110              0.516

 Optimization completed.
    -- Stationary point found.
 Normal termination of Gaussian 16 at Wed Aug 14 18:51:03 2024.

 ----------------------------------------------------------------------
 # M062X/def2tzvp int=(grid=ultrafine) pop=nbo7 polar prop=efg volume g
 uess=read geom=check
 ----------------------------------------------------------------------

 ---------
 pyrd2.xyz
 ---------
 Structure from the checkpoint file:  "pyrd2_conf-1.chk"
 Charge =  0 Multiplicity = 1

 SCF Done:  E(RM062X) =  -747.184022720     A.U. after   12 cycles

  Exact polarizability:     107.818      -9.574      98.661      -0.000       0.000      51.512
 Approx polarizability:     135.101     -10.339     129.393      -0.000      -0.000      71.536

 Summary of Natural Population Analysis:

                                     Natural Population
             Natural    ---------------------------------------------
  Atom No    Charge        Core      Valence    Rydberg      Total
 --------------------------------------------------------------------
   Cl  1   -0.01978      9.99998     7.00404    0.01576    17.01978
    C  2    0.20474      1.99999     3.76482    0.03045     5.79526
    N  3   -0.41958      1.99999     5.38413    0.03546     7.41958
    C  4    0.03104      1.99999     3.94719    0.02177     5.96896
    C  5   -0.25681      1.99999     4.24070    0.01612     6.25681
    C  6   -0.16244      1.99999     4.14585    0.01659     6.16244
    C  7   -0.07429      1.99999     4.05709    0.01721     6.07429
    C  8   -0.62950      1.99999     4.61928    0.01023     6.62950
    H  9    0.20127      0.00000     0.79735    0.00138     0.79873
    H 10    0.22500      0.00000     0.77394    0.00106     0.77500
    H 11    0.21769      0.00000     0.78080    0.00150     0.78231
    H 12    0.23323      0.00000     0.76541    0.00136     0.76677
    H 13    0.21620      0.00000     0.78257    0.00123     0.78380
    H 14    0.23323      0.00000     0.76541    0.00136     0.76677
 ====================================================================
 * Total *  0.00000     23.99993    41.82858    0.17149    66.00000

 Normal termination of Gaussian 16 at Wed Aug 14 18:52:21 2024.
 Gaussian 16:  ES64L-G16RevC.01  3-Jul-2019

 --------------------------------------------------------------------
 # M062X/def2tzvp int=(grid=ultrafine) nmr=giao guess=read geom=check
 --------------------------------------------------------------------

 ---------
 pyrd2.xyz
 ---------
 Structure from the checkpoint file:  "pyrd2_conf-1.chk"
 Charge =  0 Multiplicity = 1

                         Standard orientation:
 ---------------------------------------------------------------------
 Center     Atomic      Atomic             Coordinates (Angstroms)
 Number     Number       Type             X           Y           Z
 ---------------------------------------------------------------------
      1         17           0        1.143633   -1.860580    0.000000
      2          6           0        0.000000   -0.511847    0.000000
      3          7           0       -1.275492   -0.842574   -0.000000
      4          6           0       -2.174649    0.151072   -0.000000
      5          6           0       -1.812142    1.493806   -0.000000
      6          6           0       -0.454183    1.809249   -0.000000
      7          6           0        0.510157    0.798672   -0.000000
      8          6           0        1.981708    1.099737    0.000000
      9          1           0       -3.218989   -0.150235   -0.000000
     10          1           0       -2.569260    2.270189   -0.000000
     11          1           0       -0.130469    2.846218   -0.000000
     12          1           0        2.472799    0.669510   -0.878464
     13          1           0        2.154461    2.178558   -0.000000
     14          1           0        2.472799    0.669510    0.878464
 ---------------------------------------------------------------------

 SCF Done:  E(RM062X) =  -747.184022720     A.U. after    1 cycles

      1  Cl   Isotropic =   607.3511   Anisotropy =   532.0478

      2  C    Isotropic =     3.0323   Anisotropy =   112.1389

      3  N    Isotropic =  -136.0998   Anisotropy =   578.3268

      4  C    Isotropic =    14.9717   Anisotropy =   193.9882

      5  C    Isotropic =    42.9285   Anisotropy =   199.0161

      6  C    Isotropic =    22.9562   Anisotropy =   207.8822

      7  C    Isotropic =    29.5908   Anisotropy =   202.5443

      8  C    Isotropic =   163.6321   Anisotropy =    29.2932

      9  H    Isotropic =    22.7880   Anisotropy =     6.5608

     10  H    Isotropic =    24.0959   Anisotropy =     6.0398

     11  H    Isotropic =    23.6448   Anisotropy =     8.3210

     12  H    Isotropic =    29.3279   Anisotropy =     7.1159

     13  H    Isotropic =    29.7887   Anisotropy =     8.4717

     14  H    Isotropic =    29.3279   Anisotropy =     7.1159

 The electronic state is 1-A'.
 Alpha  occ. eigenvalues -- -102.64207 -14.76426 -10.64022 -10.58921 -10.57783
 Alpha  occ. eigenvalues --  -10.57223 -10.56124 -10.54821  -9.80474  -7.52657
 Alpha  occ. eigenvalues --   -7.52171  -7.52136  -1.08013  -0.95233  -0.93041
 Alpha  occ. eigenvalues --   -0.86383  -0.80116  -0.71889  -0.70362  -0.59894
 Alpha  occ. eigenvalues --   -0.58086  -0.53193  -0.51996  -0.49401  -0.48363
 Alpha  occ. eigenvalues --   -0.47453  -0.47381  -0.43226  -0.40626  -0.37844
 Alpha  occ. eigenvalues --   -0.35134  -0.34355  -0.31000
 Alpha virt. eigenvalues --   -0.00748   0.00320   0.06760   0.07500   0.09672
 Alpha virt. eigenvalues --    0.10892   0.12832   0.13646   0.13999   0.16527
 Alpha virt. eigenvalues --    0.17446   0.17537   0.19420   0.21538   0.21975

 Mulliken charges:
               1
     1  Cl  -0.082192
     2  C    0.132864
     3  N   -0.198488
     4  C   -0.051756
     5  C   -0.161304
     6  C   -0.107229
     7  C    0.015654
     8  C   -0.473248
     9  H    0.150305
    10  H    0.147423
    11  H    0.151488
    12  H    0.170323
    13  H    0.135837
    14  H    0.170323
 Sum of Mulliken charges =  -0.00000

 Dipole moment (field-independent basis, Debye):
    X=             -0.0211    Y=              3.4509    Z=             -0.0000  Tot=              3.4509
 Quadrupole moment (field-independent basis, Debye-Ang):
   XX=            -48.3645   YY=            -53.0664   ZZ=            -55.8111
   XY=             -1.5599   XZ=             -0.0000   YZ=              0.0000

 Normal termination of Gaussian 16 at Wed Aug 14 18:52:57 2024.
