 Gaussian 16, Revision C.01,

 ----------------------------------------------------------------------
 # B3LYP gen 6D pseudo=read symmetry=loose empiricaldispersion=GD3BJ in
 t=(grid=ultrafine) opt freq=noraman
 ----------------------------------------------------------------------

 ----------
 pyrdz1.xyz
 ----------
 Symbolic Z-matrix:
 Charge =  0 Multiplicity = 1

 SCF Done:  E(RB3LYP) =  -723.383426512     A.U. after   15 cycles
 SCF Done:  E(RB3LYP) =  -723.387659806     A.U. after   13 cycles
 SCF Done:  E(RB3LYP) =  -723.388347436     A.U. after   13 cycles
 SCF Done:  E(RB3LYP) =  -723.388524880     A.U. after   13 cycles
 SCF Done:  E(RB3LYP) =  -723.388590173     A.U. after   12 cycles
 SCF Done:  E(RB3LYP) =  -723.388613959     A.U. after   10 cycles
 SCF Done:  E(RB3LYP) =  -723.388616906     A.U. after    9 cycles
 SCF Done:  E(RB3LYP) =  -723.388617175     A.U. after    8 cycles
 SCF Done:  E(RB3LYP) =  -723.388617238     A.U. after    7 cycles
 SCF Done:  E(RB3LYP) =  -723.388617240     A.U. after    6 cycles
 Optimization completed.
    -- Stationary point found.
 Normal termination of Gaussian 16 at Wed Aug 14 19:58:18 2024.

 ------------------------------------------------------------------
 #N Geom=AllCheck Guess=TCheck SCRF=Check GenChk RB3LYP/ChkBas Freq
 ------------------------------------------------------------------

 Structure from the checkpoint file:  "pyrdz1_conf-2.chk"
 ----------
 pyrdz1.xyz
 ----------
 Charge =  0 Multiplicity = 1

 SCF Done:  E(RB3LYP) =  -723.388617240     A.U. after    1 cycles

                      1                      2                      3
                      A                      A                      A
 Frequencies --     20.0604                32.3720                41.7440
 Red. masses --      3.7246                 4.4418                 5.0332
 Frc consts  --      0.0009                 0.0027                 0.0052
 IR Inten    --      0.3635                 0.6313                 3.3531

                      4                      5                      6
                      A                      A                      A
 Frequencies --     72.5345                91.3231               154.9203
 Red. masses --      6.0806                 5.4461                 6.7668
 Frc consts  --      0.0188                 0.0268                 0.0957
 IR Inten    --      2.7463                 0.7890                 0.1942

                      7                      8                      9
                      A                      A                      A
 Frequencies --    165.3415               179.7001               203.8104
 Red. masses --      4.8101                 5.6970                 4.8086
 Frc consts  --      0.0775                 0.1084                 0.1177
 IR Inten    --      0.0517                 0.3022                 0.3753

                     10                     11                     12
                      A                      A                      A
 Frequencies --    233.5089               244.1433               264.4286
 Red. masses --      1.1015                 1.9291                 2.4971
 Frc consts  --      0.0354                 0.0677                 0.1029
 IR Inten    --      0.2293                 3.7101                 0.6694

                     13                     14                     15
                      A                      A                      A
 Frequencies --    273.4069               290.5536               347.0569
 Red. masses --      2.3946                 4.4067                 4.0945
 Frc consts  --      0.1055                 0.2192                 0.2906
 IR Inten    --      5.7926                 0.9877                 1.7443

                     16                     17                     18
                      A                      A                      A
 Frequencies --    369.0860               392.2108               426.9788
 Red. masses --      3.8216                 5.0489                 4.9549
 Frc consts  --      0.3067                 0.4576                 0.5322
 IR Inten    --      0.2194                 0.2330                 1.1874

                     19                     20                     21
                      A                      A                      A
 Frequencies --    479.1339               497.0372               545.0683
 Red. masses --      3.5489                 4.5382                 4.9900
 Frc consts  --      0.4800                 0.6606                 0.8735
 IR Inten    --      0.1665                 2.5461                10.2134

                     22                     23                     24
                      A                      A                      A
 Frequencies --    563.2723               579.5516               606.5316
 Red. masses --      5.9541                 6.0701                 3.3975
 Frc consts  --      1.1130                 1.2012                 0.7364
 IR Inten    --      3.4112                 6.9115                 3.4830

                     25                     26                     27
                      A                      A                      A
 Frequencies --    618.8450               668.4276               698.7826
 Red. masses --      3.7427                 8.9367                 5.2249
 Frc consts  --      0.8445                 2.3525                 1.5032
 IR Inten    --      0.5796                 1.6258                 2.0477

                     28                     29                     30
                      A                      A                      A
 Frequencies --    712.5011               802.9612               809.8000
 Red. masses --      4.5169                 4.5700                 5.3873
 Frc consts  --      1.3510                 1.7360                 2.0815
 IR Inten    --      0.0021                 6.4567                 0.8966

                     31                     32                     33
                      A                      A                      A
 Frequencies --    843.5399               865.7464               868.1003
 Red. masses --      1.4584                 1.3522                 8.1524
 Frc consts  --      0.6114                 0.5971                 3.6197
 IR Inten    --     31.4833                10.8992                94.8805

                     34                     35                     36
                      A                      A                      A
 Frequencies --    875.3290               908.0550               941.0987
 Red. masses --      1.5826                 2.5497                 1.1761
 Frc consts  --      0.7145                 1.2387                 0.6137
 IR Inten    --     10.0451                 1.1192                 0.9763

                     37                     38                     39
                      A                      A                      A
 Frequencies --    972.1640               989.5957              1005.6000
 Red. masses --      1.4944                 1.3165                 1.3054
 Frc consts  --      0.8321                 0.7596                 0.7778
 IR Inten    --      0.1336                 0.9172                 0.2970

                     40                     41                     42
                      A                      A                      A
 Frequencies --   1037.8120              1067.1674              1079.3680
 Red. masses --      6.8640                 3.5571                 1.5827
 Frc consts  --      4.3558                 2.3868                 1.0864
 IR Inten    --     14.8879                 4.3994                37.8422

                     43                     44                     45
                      A                      A                      A
 Frequencies --   1096.2261              1126.2159              1158.6488
 Red. masses --      1.8910                 2.3926                 1.5856
 Frc consts  --      1.3389                 1.7880                 1.2541
 IR Inten    --     14.9204                 0.5797                 4.7313

                     46                     47                     48
                      A                      A                      A
 Frequencies --   1162.9220              1193.3360              1205.3674
 Red. masses --      1.6396                 1.8604                 4.9500
 Frc consts  --      1.3064                 1.5609                 4.2374
 IR Inten    --     18.0147                 8.1351                 2.4340

                     49                     50                     51
                      A                      A                      A
 Frequencies --   1245.0578              1257.9475              1268.0935
 Red. masses --      2.9609                 1.8383                 1.5510
 Frc consts  --      2.7043                 1.7139                 1.4695
 IR Inten    --     38.3372                 2.0342                 3.4229

                     52                     53                     54
                      A                      A                      A
 Frequencies --   1312.8002              1342.8108              1349.0592
 Red. masses --      2.5398                 6.1394                 2.4886
 Frc consts  --      2.5790                 6.5224                 2.6685
 IR Inten    --      5.4384                 5.5994                27.2254

                     55                     56                     57
                      A                      A                      A
 Frequencies --   1360.7996              1389.4437              1413.4216
 Red. masses --      1.3119                 3.0633                 1.2305
 Frc consts  --      1.4313                 3.4844                 1.4484
 IR Inten    --      1.7450                11.1103                 2.6731

                     58                     59                     60
                      A                      A                      A
 Frequencies --   1434.3954              1451.7424              1468.3052
 Red. masses --      1.2377                 4.0859                 2.7526
 Frc consts  --      1.5004                 5.0736                 3.4964
 IR Inten    --      5.7203                32.8789               113.3137

                     61                     62                     63
                      A                      A                      A
 Frequencies --   1501.2528              1506.4176              1517.8863
 Red. masses --      1.0458                 1.0448                 1.0994
 Frc consts  --      1.3887                 1.3969                 1.4924
 IR Inten    --      0.0583                 2.5666                21.6012

                     64                     65                     66
                      A                      A                      A
 Frequencies --   1521.3865              1524.8738              1595.9844
 Red. masses --      2.2940                 1.1497                 4.8998
 Frc consts  --      3.1285                 1.5751                 7.3533
 IR Inten    --     41.2233                10.5023                18.1537

                     67                     68                     69
                      A                      A                      A
 Frequencies --   1617.8224              1637.0547              1651.8130
 Red. masses --      8.5292                 6.3675                 7.0147
 Frc consts  --     13.1529                10.0541                11.2766
 IR Inten    --     34.8917                20.3802                96.0370

                     70                     71                     72
                      A                      A                      A
 Frequencies --   3040.3279              3043.4661              3073.5371
 Red. masses --      1.0355                 1.0370                 1.0848
 Frc consts  --      5.6395                 5.6592                 6.0377
 IR Inten    --     21.2551                30.0008                 1.2461

                     73                     74                     75
                      A                      A                      A
 Frequencies --   3108.3240              3116.2171              3125.0936
 Red. masses --      1.1016                 1.0998                 1.1032
 Frc consts  --      6.2707                 6.2924                 6.3479
 IR Inten    --      2.5330                72.9634                17.7175

                     76                     77                     78
                      A                      A                      A
 Frequencies --   3126.5949              3199.1247              3222.3561
 Red. masses --      1.1030                 1.0911                 1.0889
 Frc consts  --      6.3527                 6.5793                 6.6620
 IR Inten    --     35.6148                13.4734                 1.7907

                     79                     80                     81
                      A                      A                      A
 Frequencies --   3235.2590              3237.2653              3262.4956
 Red. masses --      1.0939                 1.0932                 1.0933
 Frc consts  --      6.7460                 6.7501                 6.8564
 IR Inten    --      3.1504                 0.2918                 0.7090

 - Thermochemistry -
 -------------------
 Temperature   298.150 Kelvin.  Pressure   1.00000 Atm.
 Atom     1 has atomic number  6 and mass  12.00000

 Molecular mass:   341.99885 amu.
 Principal axes and moments of inertia in atomic units:
                                 1                 2                 3
     Eigenvalues --         1229.146984      19789.191804      20603.633124
           X                   0.999997         -0.001946          0.001166
           Y                   0.001950          0.999993         -0.003153
           Z                  -0.001160          0.003155          0.999994
 This molecule is an asymmetric top.
 Rotational symmetry number  1.
 Warning -- assumption of classical behavior for rotation
           may cause significant error
 Rotational temperatures (Kelvin)      0.07047     0.00438     0.00420
 Rotational constants (GHZ):           1.46829     0.09120     0.08759
 Zero-point vibrational energy     585810.2 (Joules/Mol)
                                  140.01199 (Kcal/Mol)
 Warning -- explicit consideration of  25 degrees of freedom as
           vibrations may cause significant error
 Vibrational temperatures:     28.86    46.58    60.06   104.36   131.39
          (Kelvin)            222.90   237.89   258.55   293.24   335.97
                              351.27   380.45   393.37   418.04   499.34
                              531.03   564.30   614.33   689.37   715.13
                              784.23   810.42   833.85   872.66   890.38
                              961.72  1005.39  1025.13  1155.28  1165.12
                             1213.67  1245.62  1249.00  1259.40  1306.49
                             1354.03  1398.73  1423.81  1446.83  1493.18
                             1535.42  1552.97  1577.22  1620.37  1667.04
                             1673.19  1716.94  1734.25  1791.36  1809.91
                             1824.50  1888.83  1932.01  1941.00  1957.89
                             1999.10  2033.60  2063.78  2088.73  2112.56
                             2159.97  2167.40  2183.90  2188.94  2193.95
                             2296.27  2327.69  2355.36  2376.59  4374.35
                             4378.87  4422.13  4472.18  4483.54  4496.31
                             4498.47  4602.83  4636.25  4654.82  4657.70
                             4694.00

 Zero-point correction=                           0.223123 (Hartree/Particle)
 Thermal correction to Energy=                    0.238818
 Thermal correction to Enthalpy=                  0.239762
 Thermal correction to Gibbs Free Energy=         0.176896
 Sum of electronic and zero-point Energies=           -723.165494
 Sum of electronic and thermal Energies=              -723.149799
 Sum of electronic and thermal Enthalpies=            -723.148855
 Sum of electronic and thermal Free Energies=         -723.211721

                     E (Thermal)             CV                S
                      KCal/Mol        Cal/Mol-Kelvin    Cal/Mol-Kelvin
 Total                  149.860             58.485            132.312
 Electronic               0.000              0.000              0.000
 Translational            0.889              2.981             43.383
 Rotational               0.889              2.981             34.571
 Vibrational            148.083             52.524             54.358
 Vibration     1          0.593              1.986              6.628
 Vibration     2          0.594              1.983              5.678
 Vibration     3          0.594              1.980              5.175
 Vibration     4          0.599              1.967              4.083
 Vibration     5          0.602              1.955              3.632
 Vibration     6          0.620              1.897              2.611
 Vibration     7          0.624              1.885              2.488
 Vibration     8          0.629              1.867              2.332
 Vibration     9          0.639              1.834              2.098
 Vibration    10          0.654              1.790              1.852
 Vibration    11          0.659              1.772              1.772
 Vibration    12          0.671              1.738              1.632
 Vibration    13          0.676              1.722              1.575
 Vibration    14          0.687              1.691              1.471
 Vibration    15          0.725              1.581              1.180
 Vibration    16          0.741              1.536              1.084
 Vibration    17          0.760              1.487              0.992
 Vibration    18          0.789              1.412              0.869
 Vibration    19          0.836              1.296              0.712
 Vibration    20          0.853              1.257              0.666
 Vibration    21          0.900              1.150              0.554
 Vibration    22          0.919              1.111              0.517
 Vibration    23          0.936              1.076              0.486
 Vibration    24          0.965              1.018              0.439
 Vibration    25          0.979              0.992              0.418

                           ! Non-Optimized Parameters !
 Normal termination of Gaussian 16 at Wed Aug 14 20:01:12 2024.

 ----------------------------------------------------------------------
 # M062X gen pseudo=read int=(grid=ultrafine) pop=nbo7 polar prop=efg v
 olume guess=read geom=check
 ----------------------------------------------------------------------

 ----------
 pyrdz1.xyz
 ----------
 Structure from the checkpoint file:  "pyrdz1_conf-2.chk"
 Charge =  0 Multiplicity = 1

 SCF Done:  E(RM062X) =  -723.266441283     A.U. after   13 cycles

  Exact polarizability:     338.354       1.050     158.491       0.528       2.714     106.681
 Approx polarizability:     332.236       0.380     236.776       0.273       8.325     143.025

 Summary of Natural Population Analysis:

                                     Natural Population
             Natural    ---------------------------------------------
  Atom No    Charge        Core      Valence    Rydberg      Total
 --------------------------------------------------------------------
    C  1   -0.59681      1.99999     4.58819    0.00863     6.59681
    C  2   -0.25517      1.99999     4.24201    0.01317     6.25517
    C  3   -0.59693      1.99999     4.58831    0.00863     6.59693
    C  4    0.19005      1.99999     3.78670    0.02325     5.80995
    N  5   -0.21232      1.99999     5.17767    0.03466     7.21232
    N  6   -0.20989      1.99999     5.17607    0.03382     7.20989
    C  7    0.13716      1.99999     3.84160    0.02125     5.86284
    C  8   -0.14517      1.99999     4.12628    0.01889     6.14517
    C  9   -0.14082      1.99999     4.12486    0.01597     6.14082
    C 10   -0.26756      1.99999     4.24816    0.01941     6.26756
    C 11   -0.13311      1.99999     4.10725    0.02586     6.13311
    I 12    0.17486     46.00000     6.82017    0.00497    52.82514
    C 13   -0.32220      1.99999     4.30081    0.02140     6.32220
    C 14    0.41998      1.99999     3.55803    0.02200     5.58002
    F 15   -0.32547      2.00000     7.31578    0.00969     9.32547
    C 16   -0.18765      1.99999     4.17206    0.01560     6.18765
    C 17   -0.21319      1.99999     4.19729    0.01591     6.21319
    H 18    0.21347      0.00000     0.78548    0.00105     0.78653
    H 19    0.21737      0.00000     0.78167    0.00095     0.78263
    H 20    0.19847      0.00000     0.80025    0.00128     0.80153
    H 21    0.22852      0.00000     0.76910    0.00238     0.77148
    H 22    0.19820      0.00000     0.80051    0.00129     0.80180
    H 23    0.21366      0.00000     0.78530    0.00105     0.78634
    H 24    0.21689      0.00000     0.78216    0.00096     0.78311
    H 25    0.25304      0.00000     0.74548    0.00148     0.74696
    H 26    0.23407      0.00000     0.76448    0.00146     0.76593
    H 27    0.24661      0.00000     0.75169    0.00170     0.75339
    H 28    0.24065      0.00000     0.75786    0.00149     0.75935
    H 29    0.22331      0.00000     0.77511    0.00158     0.77669
 ====================================================================
 * Total *  0.00000     77.99988    87.67036    0.32977   166.00000

 Normal termination of Gaussian 16 at Wed Aug 14 20:15:05 2024.
 Gaussian 16:  ES64L-G16RevC.01  3-Jul-2019

 ----------------------------------------------------------------------
 # M062X gen pseudo=read int=(grid=ultrafine) nmr=giao guess=read geom=
 check
 ----------------------------------------------------------------------

 ----------
 pyrdz1.xyz
 ----------
 Structure from the checkpoint file:  "pyrdz1_conf-2.chk"
 Charge =  0 Multiplicity = 1

                         Standard orientation:
 ---------------------------------------------------------------------
 Center     Atomic      Atomic             Coordinates (Angstroms)
 Number     Number       Type             X           Y           Z
 ---------------------------------------------------------------------
      1          6           0        6.654106    0.260420   -1.181368
      2          6           0        5.971280   -0.587399   -0.095600
      3          6           0        6.634379   -0.379531    1.275794
      4          6           0        4.486085   -0.308492   -0.036688
      5          7           0        3.679699   -1.342181   -0.319798
      6          7           0        2.361851   -1.190421   -0.301848
      7          6           0        1.803257   -0.006643    0.002975
      8          6           0        0.320118   -0.001265    0.003945
      9          6           0       -0.378118   -1.221114    0.045524
     10          6           0       -1.766537   -1.281768    0.047730
     11          6           0       -2.497087   -0.094357    0.002230
     12         53           0       -4.632057   -0.158860    0.011080
     13          6           0       -1.854352    1.137247   -0.049007
     14          6           0       -0.464930    1.156310   -0.048400
     15          9           0        0.120203    2.376599   -0.117179
     16          6           0        2.596859    1.111601    0.320831
     17          6           0        3.966073    0.950253    0.296558
     18          1           0        7.716049    0.005446   -1.252710
     19          1           0        6.195570    0.093175   -2.160160
     20          1           0        6.584705    1.330057   -0.953659
     21          1           0        6.058099   -1.643646   -0.370080
     22          1           0        6.567242    0.665976    1.597012
     23          1           0        7.695508   -0.643487    1.229931
     24          1           0        6.160605   -0.999422    2.042352
     25          1           0        0.209894   -2.130455    0.071031
     26          1           0       -2.269209   -2.240193    0.086433
     27          1           0       -2.392460    2.075208   -0.094946
     28          1           0        2.145351    2.057948    0.581078
     29          1           0        4.628193    1.776212    0.535474
 ---------------------------------------------------------------------

 SCF Done:  E(RM062X) =  -723.266441283     A.U. after    1 cycles

      1  C    Isotropic =   161.0006   Anisotropy =    33.7859

      2  C    Isotropic =   145.4218   Anisotropy =    28.8146

      3  C    Isotropic =   161.3655   Anisotropy =    33.5349

      4  C    Isotropic =   -11.8179   Anisotropy =   238.1256

      5  N    Isotropic =  -273.7653   Anisotropy =   722.2801

      6  N    Isotropic =  -279.2271   Anisotropy =   752.4440

      7  C    Isotropic =     4.7069   Anisotropy =   218.7752

      8  C    Isotropic =    41.0308   Anisotropy =   176.9275

      9  C    Isotropic =    31.6369   Anisotropy =   213.0550

     10  C    Isotropic =    31.3818   Anisotropy =   176.4934

     11  C    Isotropic =    21.2027   Anisotropy =   157.5109

     12  I    Isotropic =    45.4101   Anisotropy =    27.3427

     13  C    Isotropic =    41.9865   Anisotropy =   146.5623

     14  C    Isotropic =     1.5089   Anisotropy =   112.8279

     15  F    Isotropic =   288.7929   Anisotropy =   138.1568

     16  C    Isotropic =    38.8721   Anisotropy =   211.9710

     17  C    Isotropic =    43.5070   Anisotropy =   217.9873

     18  H    Isotropic =    30.5141   Anisotropy =     9.5835

     19  H    Isotropic =    30.5283   Anisotropy =     8.8275

     20  H    Isotropic =    30.7364   Anisotropy =     6.9882

     21  H    Isotropic =    27.9516   Anisotropy =     9.4946

     22  H    Isotropic =    30.7381   Anisotropy =     6.8988

     23  H    Isotropic =    30.5119   Anisotropy =     9.5992

     24  H    Isotropic =    30.5423   Anisotropy =     8.8632

     25  H    Isotropic =    21.9275   Anisotropy =     7.4839

     26  H    Isotropic =    23.8416   Anisotropy =    10.0308

     27  H    Isotropic =    24.0243   Anisotropy =    10.4019

     28  H    Isotropic =    22.9815   Anisotropy =    14.3609

     29  H    Isotropic =    23.9699   Anisotropy =    12.4083

 The electronic state is 1-A.
 Alpha  occ. eigenvalues --  -25.27635 -14.79099 -14.78941 -10.65257 -10.61327
 Alpha  occ. eigenvalues --  -10.60559 -10.59324 -10.57943 -10.57606 -10.57466
 Alpha  occ. eigenvalues --  -10.57151 -10.56612 -10.56501 -10.55536 -10.53733
 Alpha  occ. eigenvalues --  -10.53707  -1.38997  -1.13537  -0.99747  -0.95903
 Alpha  occ. eigenvalues --   -0.93685  -0.89209  -0.86926  -0.86615  -0.78706
 Alpha  occ. eigenvalues --   -0.78579  -0.75840  -0.74660  -0.72086  -0.70139
 Alpha  occ. eigenvalues --   -0.67124  -0.63155  -0.60831  -0.60551  -0.58897
 Alpha  occ. eigenvalues --   -0.58327  -0.56775  -0.53259  -0.52356  -0.52007
 Alpha  occ. eigenvalues --   -0.51829  -0.50965  -0.49244  -0.48228  -0.47720
 Alpha  occ. eigenvalues --   -0.46393  -0.45920  -0.45023  -0.44089  -0.41660
 Alpha  occ. eigenvalues --   -0.40347  -0.40254  -0.38354  -0.37930  -0.36683
 Alpha  occ. eigenvalues --   -0.33063  -0.32618  -0.32055  -0.30796  -0.28805
 Alpha virt. eigenvalues --   -0.03885  -0.02287  -0.01442   0.00661   0.03382
 Alpha virt. eigenvalues --    0.05194   0.05810   0.05999   0.06105   0.08490
 Alpha virt. eigenvalues --    0.10027   0.10550   0.10651   0.11840   0.12483

 Mulliken charges:
               1
     1  C   -0.428009
     2  C   -0.186065
     3  C   -0.429806
     4  C    0.157885
     5  N   -0.167475
     6  N   -0.136534
     7  C    0.137381
     8  C   -0.010605
     9  C   -0.186201
    10  C   -0.030030
    11  C   -0.368350
    12  I    0.085266
    13  C   -0.089853
    14  C    0.253866
    15  F   -0.214771
    16  C   -0.186208
    17  C   -0.174313
    18  H    0.149535
    19  H    0.159575
    20  H    0.136211
    21  H    0.152048
    22  H    0.135853
    23  H    0.150164
    24  H    0.158912
    25  H    0.190387
    26  H    0.190207
    27  H    0.194083
    28  H    0.178178
    29  H    0.178669
 Sum of Mulliken charges =  -0.00000

 Dipole moment (field-independent basis, Debye):
    X=              1.8928    Y=              2.0346    Z=              0.9981  Tot=              2.9527
 Quadrupole moment (field-independent basis, Debye-Ang):
   XX=            -97.5368   YY=           -114.4699   ZZ=           -117.1580
   XY=              8.3385   XZ=              2.8350   YZ=             -0.5490

 Normal termination of Gaussian 16 at Wed Aug 14 20:20:30 2024.
