 Gaussian 16, Revision C.01,

 ----------------------------------------------------------------------
 # B3LYP gen 6D pseudo=read symmetry=loose empiricaldispersion=GD3BJ in
 t=(grid=ultrafine) opt freq=noraman
 ----------------------------------------------------------------------

 ----------
 pyrdz1.xyz
 ----------
 Symbolic Z-matrix:
 Charge =  0 Multiplicity = 1

 SCF Done:  E(RB3LYP) =  -723.379318823     A.U. after   15 cycles
 SCF Done:  E(RB3LYP) =  -723.382891341     A.U. after   12 cycles
 SCF Done:  E(RB3LYP) =  -723.383160643     A.U. after   11 cycles
 SCF Done:  E(RB3LYP) =  -723.383182496     A.U. after   11 cycles
 SCF Done:  E(RB3LYP) =  -723.383186162     A.U. after    9 cycles
 SCF Done:  E(RB3LYP) =  -723.383187103     A.U. after    8 cycles
 Optimization completed.
    -- Stationary point found.
 Normal termination of Gaussian 16 at Wed Aug 14 20:02:02 2024.

 ------------------------------------------------------------------
 #N Geom=AllCheck Guess=TCheck SCRF=Check GenChk RB3LYP/ChkBas Freq
 ------------------------------------------------------------------

 Structure from the checkpoint file:  "pyrdz1_conf-3.chk"
 ----------
 pyrdz1.xyz
 ----------
 Charge =  0 Multiplicity = 1

 SCF Done:  E(RB3LYP) =  -723.383187103     A.U. after    1 cycles

                      1                      2                      3
                      A                      A                      A
 Frequencies --     24.1482                35.1317                46.6860
 Red. masses --      4.7740                 3.6909                 6.2983
 Frc consts  --      0.0016                 0.0027                 0.0081
 IR Inten    --      0.2769                 0.0983                 1.3573

                      4                      5                      6
                      A                      A                      A
 Frequencies --     64.2138               100.7905               144.7688
 Red. masses --      5.2539                 5.1300                 5.4732
 Frc consts  --      0.0128                 0.0307                 0.0676
 IR Inten    --      3.2344                 0.1696                 0.5329

                      7                      8                      9
                      A                      A                      A
 Frequencies --    163.0009               181.4577               200.3675
 Red. masses --      7.0139                 6.3266                 4.6990
 Frc consts  --      0.1098                 0.1227                 0.1112
 IR Inten    --      0.7299                 0.3946                 0.0768

                     10                     11                     12
                      A                      A                      A
 Frequencies --    230.0608               234.1258               257.8705
 Red. masses --      1.5469                 1.6288                 4.3004
 Frc consts  --      0.0482                 0.0526                 0.1685
 IR Inten    --      0.2849                 0.5799                 1.1076

                     13                     14                     15
                      A                      A                      A
 Frequencies --    272.5310               295.6403               351.2707
 Red. masses --      1.3311                 3.9232                 3.5553
 Frc consts  --      0.0582                 0.2020                 0.2585
 IR Inten    --      0.3168                 1.9382                 1.7668

                     16                     17                     18
                      A                      A                      A
 Frequencies --    376.8277               388.8327               428.1946
 Red. masses --      3.8470                 5.7143                 5.8543
 Frc consts  --      0.3219                 0.5090                 0.6324
 IR Inten    --      0.0409                 8.7920                 1.7569

                     19                     20                     21
                      A                      A                      A
 Frequencies --    475.8964               492.7520               540.7175
 Red. masses --      3.3447                 4.3482                 4.4745
 Frc consts  --      0.4463                 0.6220                 0.7708
 IR Inten    --      0.5246                 2.5050                 1.8112

                     22                     23                     24
                      A                      A                      A
 Frequencies --    554.7354               587.0888               611.4020
 Red. masses --      6.2374                 5.3805                 3.5188
 Frc consts  --      1.1309                 1.0926                 0.7750
 IR Inten    --      2.1106                 6.9349                 2.9955

                     25                     26                     27
                      A                      A                      A
 Frequencies --    628.1766               659.6268               708.1356
 Red. masses --      3.9621                 8.3955                 4.9435
 Frc consts  --      0.9212                 2.1522                 1.4605
 IR Inten    --      2.4589                 0.0248                 1.1930

                     28                     29                     30
                      A                      A                      A
 Frequencies --    728.8428               805.4197               811.1920
 Red. masses --      4.6185                 3.8406                 5.0683
 Frc consts  --      1.4455                 1.4679                 1.9650
 IR Inten    --      0.1840                 5.5406                 5.3952

                     31                     32                     33
                      A                      A                      A
 Frequencies --    830.3895               869.8926               872.9037
 Red. masses --      1.6067                 2.1572                 2.6345
 Frc consts  --      0.6527                 0.9618                 1.1827
 IR Inten    --     22.9563                43.4470                48.5213

                     34                     35                     36
                      A                      A                      A
 Frequencies --    875.2154               905.5062               939.2015
 Red. masses --      1.5285                 2.6186                 1.1494
 Frc consts  --      0.6898                 1.2650                 0.5973
 IR Inten    --     22.3909                 2.4875                 2.3281

                     37                     38                     39
                      A                      A                      A
 Frequencies --    961.3168               973.6901               997.0820
 Red. masses --      1.3119                 1.5537                 1.3159
 Frc consts  --      0.7143                 0.8679                 0.7708
 IR Inten    --      0.7296                 0.0572                 0.0024

                     40                     41                     42
                      A                      A                      A
 Frequencies --   1041.3267              1063.3032              1092.1647
 Red. masses --      7.0144                 2.9078                 1.9607
 Frc consts  --      4.4814                 1.9370                 1.3780
 IR Inten    --     13.2523                 1.2343                19.6590

                     43                     44                     45
                      A                      A                      A
 Frequencies --   1096.2246              1128.0176              1154.2388
 Red. masses --      1.8254                 2.3196                 1.5703
 Frc consts  --      1.2924                 1.7390                 1.2326
 IR Inten    --     69.2708                 0.0236                14.4494

                     46                     47                     48
                      A                      A                      A
 Frequencies --   1166.9517              1178.7899              1198.8979
 Red. masses --      1.5583                 2.1571                 2.7931
 Frc consts  --      1.2503                 1.7660                 2.3653
 IR Inten    --      7.2908                 3.1024                 2.7110

                     49                     50                     51
                      A                      A                      A
 Frequencies --   1251.4091              1268.3284              1271.5831
 Red. masses --      1.9761                 2.8876                 1.5369
 Frc consts  --      1.8233                 2.7368                 1.4641
 IR Inten    --      7.2522                34.9664                 1.9644

                     52                     53                     54
                      A                      A                      A
 Frequencies --   1323.4792              1327.3354              1348.3384
 Red. masses --      2.6942                 4.8263                 1.3282
 Frc consts  --      2.7805                 5.0098                 1.4227
 IR Inten    --      5.7915                 4.0658                 1.7254

                     55                     56                     57
                      A                      A                      A
 Frequencies --   1357.0810              1406.5858              1407.3882
 Red. masses --      3.5495                 1.2322                 2.5667
 Frc consts  --      3.8515                 1.4364                 2.9954
 IR Inten    --      3.7706                 3.2041                14.1254

                     58                     59                     60
                      A                      A                      A
 Frequencies --   1426.4013              1442.2351              1469.6637
 Red. masses --      1.2647                 2.9797                 3.4710
 Frc consts  --      1.5160                 3.6517                 4.4171
 IR Inten    --      3.8786                23.9993                99.7958

                     61                     62                     63
                      A                      A                      A
 Frequencies --   1498.9073              1508.3720              1514.8029
 Red. masses --      1.0406                 1.0486                 1.0479
 Frc consts  --      1.3775                 1.4056                 1.4167
 IR Inten    --      0.7315                 0.9094                 9.2276

                     64                     65                     66
                      A                      A                      A
 Frequencies --   1529.3091              1530.2885              1594.5853
 Red. masses --      1.5412                 1.6431                 5.3040
 Frc consts  --      2.1237                 2.2670                 7.9461
 IR Inten    --     18.6077                54.7603                 7.1790

                     67                     68                     69
                      A                      A                      A
 Frequencies --   1623.7414              1634.3987              1651.0759
 Red. masses --      8.0700                 6.4767                 6.9890
 Frc consts  --     12.5360                10.1934                11.2253
 IR Inten    --     37.7391                 4.4159               120.1760

                     70                     71                     72
                      A                      A                      A
 Frequencies --   3035.9511              3046.8633              3050.1197
 Red. masses --      1.0838                 1.0347                 1.0361
 Frc consts  --      5.8853                 5.6595                 5.6793
 IR Inten    --     24.0344                31.7505                31.6248

                     73                     74                     75
                      A                      A                      A
 Frequencies --   3117.3266              3119.8638              3136.3416
 Red. masses --      1.1033                 1.1027                 1.1028
 Frc consts  --      6.3171                 6.3236                 6.3912
 IR Inten    --     18.0778                53.2250                 3.3695

                     76                     77                     78
                      A                      A                      A
 Frequencies --   3140.4418              3190.8025              3195.6573
 Red. masses --      1.1021                 1.0886                 1.0894
 Frc consts  --      6.4038                 6.5303                 6.5545
 IR Inten    --     32.5877                17.0801                 1.7046

                     79                     80                     81
                      A                      A                      A
 Frequencies --   3209.7294              3229.3065              3237.7224
 Red. masses --      1.0963                 1.0940                 1.0927
 Frc consts  --      6.6548                 6.7216                 6.7491
 IR Inten    --      7.1417                 1.9677                 1.6575

 - Thermochemistry -
 -------------------
 Temperature   298.150 Kelvin.  Pressure   1.00000 Atm.
 Atom     1 has atomic number  6 and mass  12.00000

 Molecular mass:   341.99885 amu.
 Principal axes and moments of inertia in atomic units:
                                 1                 2                 3
     Eigenvalues --         1216.050504      19560.723647      20216.700495
           X                   0.999995          0.000945         -0.002912
           Y                  -0.000931          0.999987          0.004926
           Z                   0.002916         -0.004923          0.999984
 This molecule is an asymmetric top.
 Rotational symmetry number  1.
 Warning -- assumption of classical behavior for rotation
           may cause significant error
 Rotational temperatures (Kelvin)      0.07123     0.00443     0.00428
 Rotational constants (GHZ):           1.48410     0.09226     0.08927
 Zero-point vibrational energy     585215.9 (Joules/Mol)
                                  139.86995 (Kcal/Mol)
 Warning -- explicit consideration of  24 degrees of freedom as
           vibrations may cause significant error
 Vibrational temperatures:     34.74    50.55    67.17    92.39   145.02
          (Kelvin)            208.29   234.52   261.08   288.28   331.01
                              336.85   371.02   392.11   425.36   505.40
                              542.17   559.44   616.08   684.71   708.96
                              777.97   798.14   844.69   879.67   903.81
                              949.06  1018.85  1048.64  1158.82  1167.12
                             1194.75  1251.58  1255.91  1259.24  1302.82
                             1351.30  1383.12  1400.92  1434.58  1498.24
                             1529.86  1571.38  1577.22  1622.97  1660.69
                             1678.98  1696.02  1724.95  1800.50  1824.84
                             1829.52  1904.19  1909.74  1939.96  1952.54
                             2023.76  2024.92  2052.27  2075.05  2114.52
                             2156.59  2170.21  2179.46  2200.33  2201.74
                             2294.25  2336.20  2351.54  2375.53  4368.06
                             4383.76  4388.44  4485.14  4488.79  4512.50
                             4518.40  4590.85  4597.84  4618.08  4646.25
                             4658.36

 Zero-point correction=                           0.222897 (Hartree/Particle)
 Thermal correction to Energy=                    0.238603
 Thermal correction to Enthalpy=                  0.239548
 Thermal correction to Gibbs Free Energy=         0.176914
 Sum of electronic and zero-point Energies=           -723.160290
 Sum of electronic and thermal Energies=              -723.144584
 Sum of electronic and thermal Enthalpies=            -723.143640
 Sum of electronic and thermal Free Energies=         -723.206273

                     E (Thermal)             CV                S
                      KCal/Mol        Cal/Mol-Kelvin    Cal/Mol-Kelvin
 Total                  149.726             58.509            131.823
 Electronic               0.000              0.000              0.000
 Translational            0.889              2.981             43.383
 Rotational               0.889              2.981             34.530
 Vibrational            147.948             52.548             53.910
 Vibration     1          0.593              1.985              6.260
 Vibration     2          0.594              1.982              5.516
 Vibration     3          0.595              1.979              4.953
 Vibration     4          0.597              1.971              4.323
 Vibration     5          0.604              1.948              3.439
 Vibration     6          0.616              1.908              2.740
 Vibration     7          0.623              1.888              2.515
 Vibration     8          0.630              1.865              2.313
 Vibration     9          0.638              1.839              2.130
 Vibration    10          0.652              1.795              1.878
 Vibration    11          0.654              1.789              1.847
 Vibration    12          0.667              1.749              1.676
 Vibration    13          0.676              1.724              1.580
 Vibration    14          0.690              1.682              1.441
 Vibration    15          0.728              1.573              1.160
 Vibration    16          0.747              1.520              1.052
 Vibration    17          0.757              1.494              1.005
 Vibration    18          0.790              1.409              0.865
 Vibration    19          0.833              1.304              0.721
 Vibration    20          0.848              1.266              0.676
 Vibration    21          0.896              1.160              0.564
 Vibration    22          0.910              1.129              0.534
 Vibration    23          0.944              1.059              0.472
 Vibration    24          0.971              1.008              0.430

                           ! Non-Optimized Parameters !
 Normal termination of Gaussian 16 at Wed Aug 14 20:05:02 2024.

 ----------------------------------------------------------------------
 # M062X gen pseudo=read int=(grid=ultrafine) pop=nbo7 polar prop=efg v
 olume guess=read geom=check
 ----------------------------------------------------------------------

 ----------
 pyrdz1.xyz
 ----------
 Structure from the checkpoint file:  "pyrdz1_conf-3.chk"
 Charge =  0 Multiplicity = 1

 SCF Done:  E(RM062X) =  -723.262574701     A.U. after   13 cycles

  Exact polarizability:     324.150       0.466     155.942       1.453       4.756     113.397
 Approx polarizability:     320.830       0.715     226.465       3.343      14.194     156.094

 Summary of Natural Population Analysis:

                                     Natural Population
             Natural    ---------------------------------------------
  Atom No    Charge        Core      Valence    Rydberg      Total
 --------------------------------------------------------------------
    C  1   -0.59771      1.99999     4.58860    0.00912     6.59771
    C  2   -0.24361      1.99999     4.23112    0.01250     6.24361
    C  3   -0.59792      1.99999     4.58879    0.00914     6.59792
    C  4    0.18897      1.99999     3.78811    0.02293     5.81103
    N  5   -0.21985      1.99999     5.18520    0.03466     7.21985
    N  6   -0.17966      1.99999     5.14587    0.03381     7.17966
    C  7    0.13218      1.99999     3.84604    0.02179     5.86782
    C  8   -0.13724      1.99999     4.11748    0.01977     6.13724
    C  9   -0.16379      1.99999     4.14863    0.01517     6.16379
    C 10   -0.27060      1.99999     4.25095    0.01966     6.27060
    C 11   -0.13397      1.99999     4.10810    0.02588     6.13397
    I 12    0.17349     46.00000     6.82157    0.00494    52.82651
    C 13   -0.31753      1.99999     4.29614    0.02140     6.31753
    C 14    0.43957      1.99999     3.53721    0.02323     5.56043
    F 15   -0.30064      2.00000     7.29006    0.01058     9.30064
    C 16   -0.19344      1.99999     4.17797    0.01548     6.19344
    C 17   -0.21083      1.99999     4.19438    0.01646     6.21083
    H 18    0.20844      0.00000     0.79048    0.00107     0.79156
    H 19    0.20798      0.00000     0.79103    0.00099     0.79202
    H 20    0.22380      0.00000     0.77479    0.00141     0.77620
    H 21    0.19813      0.00000     0.79976    0.00212     0.80187
    H 22    0.22410      0.00000     0.77450    0.00140     0.77590
    H 23    0.20827      0.00000     0.79066    0.00107     0.79173
    H 24    0.20869      0.00000     0.79032    0.00098     0.79131
    H 25    0.22253      0.00000     0.77618    0.00129     0.77747
    H 26    0.23340      0.00000     0.76510    0.00150     0.76660
    H 27    0.24732      0.00000     0.75100    0.00168     0.75268
    H 28    0.22605      0.00000     0.77256    0.00139     0.77395
    H 29    0.22385      0.00000     0.77474    0.00141     0.77615
 ====================================================================
 * Total *  0.00000     77.99988    87.66732    0.33280   166.00000

 1\1\GINC-COMPUTE-0-1\SP\RM062X\Gen\C13H12F1I1N2\ZTAN64\14-Aug-2024\0\\
 # M062X gen pseudo=read int=(grid=ultrafine) pop=nbo7 polar prop=efg v
 olume guess=read geom=check\\pyrdz1.xyz\\0,1\C,0,-4.0741001254,0.88341
 61323,-0.4762187499\C,0,-3.2826955321,0.6002403897,0.8109502701\C,0,-3
 .7467670331,-0.7076729877,1.4721931673\C,0,-1.7969566282,0.5484591964,
 0.5188824656\N,0,-1.3992291553,-0.4137413779,-0.3284992321\N,0,-0.1210
 85822,-0.5475820239,-0.6556765693\C,0,0.7981290734,0.2808953048,-0.129
 145813\C,0,2.2003374225,0.0843633144,-0.5597224034\C,0,3.0198890934,1.

 Normal termination of Gaussian 16 at Wed Aug 14 20:19:10 2024.
 Gaussian 16:  ES64L-G16RevC.01  3-Jul-2019

 ----------------------------------------------------------------------
 # M062X gen pseudo=read int=(grid=ultrafine) nmr=giao guess=read geom=
 check
 ----------------------------------------------------------------------

 ----------
 pyrdz1.xyz
 ----------
 Structure from the checkpoint file:  "pyrdz1_conf-3.chk"
 Charge =  0 Multiplicity = 1

                         Standard orientation:
 ---------------------------------------------------------------------
 Center     Atomic      Atomic             Coordinates (Angstroms)
 Number     Number       Type             X           Y           Z
 ---------------------------------------------------------------------
      1          6           0       -6.460857   -0.391735    1.434695
      2          6           0       -6.000354   -0.241573   -0.024312
      3          6           0       -6.503235    1.077574   -0.632757
      4          6           0       -4.490308   -0.325306   -0.114604
      5          7           0       -3.809963    0.626789    0.543211
      6          7           0       -2.484025    0.646658    0.533126
      7          6           0       -1.802660   -0.289789   -0.150523
      8          6           0       -0.325606   -0.215630   -0.095567
      9          6           0        0.445928   -1.375504    0.060556
     10          6           0        1.837204   -1.337741    0.116030
     11          6           0        2.478526   -0.105431    0.009205
     12         53           0        4.612338   -0.014301    0.095125
     13          6           0        1.755036    1.071949   -0.153890
     14          6           0        0.367341    0.996867   -0.203637
     15          9           0       -0.306726    2.138774   -0.402011
     16          6           0       -2.452707   -1.307145   -0.865722
     17          6           0       -3.833412   -1.326353   -0.840383
     18          1           0       -7.551821   -0.335243    1.499902
     19          1           0       -6.141588   -1.350021    1.856207
     20          1           0       -6.031051    0.407297    2.044287
     21          1           0       -6.410346   -1.075508   -0.608438
     22          1           0       -6.074244    1.924332   -0.090798
     23          1           0       -7.594241    1.136891   -0.570649
     24          1           0       -6.214433    1.166033   -1.684683
     25          1           0       -0.060939   -2.329451    0.166960
     26          1           0        2.404671   -2.250127    0.249743
     27          1           0        2.232221    2.038518   -0.251373
     28          1           0       -1.881470   -2.036747   -1.429911
     29          1           0       -4.401603   -2.082187   -1.373700
 ---------------------------------------------------------------------

 SCF Done:  E(RM062X) =  -723.262574701     A.U. after    1 cycles

      1  C    Isotropic =   160.8101   Anisotropy =    33.9353

      2  C    Isotropic =   143.7939   Anisotropy =    22.4211

      3  C    Isotropic =   160.8946   Anisotropy =    33.6882

      4  C    Isotropic =   -11.5883   Anisotropy =   247.9722

      5  N    Isotropic =  -289.9734   Anisotropy =   785.5031

      6  N    Isotropic =  -300.7194   Anisotropy =   795.6926

      7  C    Isotropic =     1.2936   Anisotropy =   212.9427

      8  C    Isotropic =    36.5189   Anisotropy =   183.4637

      9  C    Isotropic =    32.6339   Anisotropy =   193.8597

     10  C    Isotropic =    33.2322   Anisotropy =   175.1478

     11  C    Isotropic =    22.4950   Anisotropy =   157.5642

     12  I    Isotropic =    45.2956   Anisotropy =    27.6902

     13  C    Isotropic =    40.1747   Anisotropy =   150.7360

     14  C    Isotropic =     2.0041   Anisotropy =   125.8842

     15  F    Isotropic =   282.1702   Anisotropy =   158.9591

     16  C    Isotropic =    40.8535   Anisotropy =   201.1305

     17  C    Isotropic =    41.6658   Anisotropy =   190.2690

     18  H    Isotropic =    30.6068   Anisotropy =     9.3110

     19  H    Isotropic =    30.6609   Anisotropy =     8.8590

     20  H    Isotropic =    29.7941   Anisotropy =     7.8946

     21  H    Isotropic =    28.8957   Anisotropy =     7.7778

     22  H    Isotropic =    29.7565   Anisotropy =     8.1357

     23  H    Isotropic =    30.6084   Anisotropy =     9.2847

     24  H    Isotropic =    30.6464   Anisotropy =     8.7650

     25  H    Isotropic =    23.8952   Anisotropy =     8.8552

     26  H    Isotropic =    23.9414   Anisotropy =     9.8931

     27  H    Isotropic =    23.9261   Anisotropy =    10.1187

     28  H    Isotropic =    24.0073   Anisotropy =    11.1944

     29  H    Isotropic =    24.2058   Anisotropy =     9.9086

 The electronic state is 1-A.
 Alpha  occ. eigenvalues --  -25.26304 -14.79218 -14.78878 -10.64945 -10.61383
 Alpha  occ. eigenvalues --  -10.60354 -10.59399 -10.58029 -10.57870 -10.57664
 Alpha  occ. eigenvalues --  -10.57470 -10.57036 -10.56854 -10.55609 -10.52854
 Alpha  occ. eigenvalues --  -10.52810  -1.37980  -1.13536  -0.99814  -0.95857
 Alpha  occ. eigenvalues --   -0.93793  -0.89105  -0.87093  -0.86291  -0.78335
 Alpha  occ. eigenvalues --   -0.77901  -0.76438  -0.74117  -0.72349  -0.69924
 Alpha  occ. eigenvalues --   -0.67064  -0.62986  -0.60911  -0.60403  -0.58653
 Alpha  occ. eigenvalues --   -0.57531  -0.55684  -0.53030  -0.52938  -0.52071
 Alpha  occ. eigenvalues --   -0.51810  -0.50106  -0.49880  -0.48388  -0.47434
 Alpha  occ. eigenvalues --   -0.46138  -0.45368  -0.44958  -0.43180  -0.41060
 Alpha  occ. eigenvalues --   -0.40370  -0.40327  -0.37854  -0.37629  -0.36791
 Alpha  occ. eigenvalues --   -0.33293  -0.32444  -0.32080  -0.30670  -0.29070
 Alpha virt. eigenvalues --   -0.03040  -0.02631  -0.01510   0.00181   0.02531
 Alpha virt. eigenvalues --    0.05084   0.05875   0.05974   0.06287   0.07866
 Alpha virt. eigenvalues --    0.09006   0.10505   0.11286   0.11672   0.11895

 Mulliken charges:
               1
     1  C   -0.433691
     2  C   -0.144719
     3  C   -0.432678
     4  C    0.139376
     5  N   -0.164581
     6  N   -0.155406
     7  C    0.136821
     8  C   -0.031147
     9  C   -0.182913
    10  C   -0.061636
    11  C   -0.355126
    12  I    0.085650
    13  C   -0.108876
    14  C    0.271275
    15  F   -0.177712
    16  C   -0.193550
    17  C   -0.124334
    18  H    0.141312
    19  H    0.140727
    20  H    0.171859
    21  H    0.121614
    22  H    0.172077
    23  H    0.140640
    24  H    0.141884
    25  H    0.178364
    26  H    0.187373
    27  H    0.194846
    28  H    0.178866
    29  H    0.163685
 Sum of Mulliken charges =  -0.00000

 Dipole moment (field-independent basis, Debye):
    X=             -1.2949    Y=             -3.9261    Z=             -1.8983  Tot=              4.5491
 Quadrupole moment (field-independent basis, Debye-Ang):
   XX=           -101.9789   YY=           -110.5075   ZZ=           -116.8800
   XY=             10.3897   XZ=              6.4054   YZ=              0.3798

 1\1\GINC-COMPUTE-0-1\SP\RM062X\Gen\C13H12F1I1N2\ZTAN64\14-Aug-2024\0\\
 # M062X gen pseudo=read int=(grid=ultrafine) nmr=giao guess=read geom=
 check\\pyrdz1.xyz\\0,1\C,0,-4.0741001254,0.8834161323,-0.4762187499\C,
 0,-3.2826955321,0.6002403897,0.8109502701\C,0,-3.7467670331,-0.7076729
 877,1.4721931673\C,0,-1.7969566282,0.5484591964,0.5188824656\N,0,-1.39
 92291553,-0.4137413779,-0.3284992321\N,0,-0.121085822,-0.5475820239,-0
 .6556765693\C,0,0.7981290734,0.2808953048,-0.129145813\C,0,2.200337422
 5,0.0843633144,-0.5597224034\C,0,3.0198890934,1.1816476094,-0.85846492

 Normal termination of Gaussian 16 at Wed Aug 14 20:24:42 2024.
