 Gaussian 16, Revision C.01,

 ----------------------------------------------------------------------
 # B3LYP/6-31G(d,p) symmetry=loose empiricaldispersion=GD3BJ int=(grid=
 ultrafine) opt=calcfc freq=noraman
 ----------------------------------------------------------------------

 ----------
 pyrmd1.xyz
 ----------
 Symbolic Z-matrix:
 Charge =  0 Multiplicity = 1

 SCF Done:  E(RB3LYP) =  -626.269659779     A.U. after   15 cycles
 SCF Done:  E(RB3LYP) =  -626.275733429     A.U. after   13 cycles
 SCF Done:  E(RB3LYP) =  -626.274418385     A.U. after   14 cycles
 SCF Done:  E(RB3LYP) =  -626.276470111     A.U. after   12 cycles
 SCF Done:  E(RB3LYP) =  -626.276528092     A.U. after   10 cycles
 SCF Done:  E(RB3LYP) =  -626.276537314     A.U. after   10 cycles
 SCF Done:  E(RB3LYP) =  -626.276540698     A.U. after    8 cycles
 SCF Done:  E(RB3LYP) =  -626.276541746     A.U. after    8 cycles
 SCF Done:  E(RB3LYP) =  -626.276543275     A.U. after    8 cycles
 SCF Done:  E(RB3LYP) =  -626.276543480     A.U. after    8 cycles
 Optimization completed.
    -- Stationary point found.
 Normal termination of Gaussian 16 at Fri Aug 16 13:57:44 2024.

 ----------------------------------------------------------------------
 #N Geom=AllCheck Guess=TCheck SCRF=Check GenChk RB3LYP/6-31G(d,p) Freq
 ----------------------------------------------------------------------

 Structure from the checkpoint file:  "pyrmd1_conf-2.chk"
 ----------
 pyrmd1.xyz
 ----------
 Charge =  0 Multiplicity = 1

 SCF Done:  E(RB3LYP) =  -626.276543480     A.U. after    1 cycles

                      1                      2                      3
                      A                      A                      A
 Frequencies --     36.7834                53.4656                90.3047
 Red. masses --      3.6924                 4.1187                 5.3604
 Frc consts  --      0.0029                 0.0069                 0.0258
 IR Inten    --      0.4987                 0.9816                 4.8392

                      4                      5                      6
                      A                      A                      A
 Frequencies --    103.5213               144.2233               155.3710
 Red. masses --      4.6033                 1.1656                 2.4610
 Frc consts  --      0.0291                 0.0143                 0.0350
 IR Inten    --      3.9033               240.2362                 1.7519

                      7                      8                      9
                      A                      A                      A
 Frequencies --    167.6079               210.7097               237.5170
 Red. masses --      1.1139                 3.4646                 1.2829
 Frc consts  --      0.0184                 0.0906                 0.0426
 IR Inten    --      5.7828                 0.1271                 1.6791

                     10                     11                     12
                      A                      A                      A
 Frequencies --    267.7966               300.8181               338.3627
 Red. masses --      5.5386                 3.9066                 3.4042
 Frc consts  --      0.2340                 0.2083                 0.2296
 IR Inten    --     13.2174                 6.7384                 0.8339

                     13                     14                     15
                      A                      A                      A
 Frequencies --    350.7926               402.9936               448.1197
 Red. masses --      2.9505                 5.9249                 3.2055
 Frc consts  --      0.2139                 0.5669                 0.3793
 IR Inten    --     18.9996                 4.5727                 5.6502

                     16                     17                     18
                      A                      A                      A
 Frequencies --    458.0096               534.2101               569.7147
 Red. masses --      3.2731                 3.0571                 1.0879
 Frc consts  --      0.4045                 0.5140                 0.2080
 IR Inten    --      4.1304                12.7758                 0.1847

                     19                     20                     21
                      A                      A                      A
 Frequencies --    581.6276               629.8625               667.0298
 Red. masses --      5.7999                 3.6749                 6.6020
 Frc consts  --      1.1560                 0.8590                 1.7307
 IR Inten    --      1.0302                 2.8176                 6.5261

                     22                     23                     24
                      A                      A                      A
 Frequencies --    760.8593               778.6829               784.9651
 Red. masses --      9.0907                 4.9640                 1.6088
 Frc consts  --      3.1007                 1.7734                 0.5841
 IR Inten    --      3.9928                 2.2685                 5.1386

                     25                     26                     27
                      A                      A                      A
 Frequencies --    817.1043               853.1564               889.8295
 Red. masses --      9.3979                 2.4248                 2.6876
 Frc consts  --      3.6969                 1.0399                 1.2538
 IR Inten    --     27.1816                 0.7998                 1.8023

                     28                     29                     30
                      A                      A                      A
 Frequencies --    974.4271               996.8518              1016.6352
 Red. masses --      3.1756                 1.4544                 1.6214
 Frc consts  --      1.7765                 0.8515                 0.9874
 IR Inten    --      0.8586                 1.7798                 9.3969

                     31                     32                     33
                      A                      A                      A
 Frequencies --   1029.2167              1060.1546              1094.5338
 Red. masses --      3.4976                 1.6281                 2.2569
 Frc consts  --      2.1829                 1.0782                 1.5930
 IR Inten    --      3.8424                 4.5018                28.7664

                     34                     35                     36
                      A                      A                      A
 Frequencies --   1120.5340              1135.3296              1202.1398
 Red. masses --      2.3676                 3.6625                 1.7983
 Frc consts  --      1.7515                 2.7815                 1.5312
 IR Inten    --     16.7235               254.1922                33.8686

                     37                     38                     39
                      A                      A                      A
 Frequencies --   1259.3469              1296.1819              1326.0781
 Red. masses --      3.1547                 4.7267                 3.1320
 Frc consts  --      2.9478                 4.6788                 3.2449
 IR Inten    --    162.1721               221.7256               329.6220

                     40                     41                     42
                      A                      A                      A
 Frequencies --   1336.5560              1387.3120              1407.4565
 Red. masses --      1.1144                 2.5787                 1.2960
 Frc consts  --      1.1730                 2.9242                 1.5126
 IR Inten    --      5.7886                 7.3350                30.2591

                     43                     44                     45
                      A                      A                      A
 Frequencies --   1416.9103              1432.5867              1446.4631
 Red. masses --      1.3002                 1.3483                 1.6157
 Frc consts  --      1.5380                 1.6304                 1.9917
 IR Inten    --     17.5189                10.0951                 6.7617

                     46                     47                     48
                      A                      A                      A
 Frequencies --   1486.3704              1492.3257              1499.0404
 Red. masses --      1.0456                 1.9064                 1.0861
 Frc consts  --      1.3611                 2.5014                 1.4380
 IR Inten    --      6.6083                34.7419                40.6917

                     49                     50                     51
                      A                      A                      A
 Frequencies --   1502.0874              1508.6228              1523.5658
 Red. masses --      1.1203                 1.9695                 1.0622
 Frc consts  --      1.4893                 2.6410                 1.4528
 IR Inten    --     25.6504                55.7062                 4.5102

                     52                     53                     54
                      A                      A                      A
 Frequencies --   1579.4653              1640.0761              1660.2914
 Red. masses --      7.2301                 2.6996                 3.1756
 Frc consts  --     10.6272                 4.2783                 5.1575
 IR Inten    --    183.6976                10.2985              1004.2933

                     55                     56                     57
                      A                      A                      A
 Frequencies --   1784.2494              3055.8958              3070.0724
 Red. masses --     11.2975                 1.0362                 1.0352
 Frc consts  --     21.1907                 5.7011                 5.7485
 IR Inten    --    236.9930                18.8589                 4.2948

                     58                     59                     60
                      A                      A                      A
 Frequencies --   3084.0037              3125.0817              3133.4793
 Red. masses --      1.0586                 1.1029                 1.0987
 Frc consts  --      5.9319                 6.3462                 6.3560
 IR Inten    --     33.9550                21.9084                 4.2236

                     61                     62                     63
                      A                      A                      A
 Frequencies --   3135.4036              3155.5698              3168.3596
 Red. masses --      1.1047                 1.1060                 1.1061
 Frc consts  --      6.3986                 6.4889                 6.5421
 IR Inten    --     11.7671                25.5340                14.0209

                     64                     65                     66
                      A                      A                      A
 Frequencies --   3203.3928              3634.2327              3778.9400
 Red. masses --      1.0915                 1.0442                 1.1065
 Frc consts  --      6.5993                 8.1253                 9.3100
 IR Inten    --      6.5365               141.0696                59.0941

 - Thermochemistry -
 -------------------
 Temperature   298.150 Kelvin.  Pressure   1.00000 Atm.
 Atom     1 has atomic number  7 and mass  14.00307

 Molecular mass:   181.08513 amu.
 Principal axes and moments of inertia in atomic units:
                                 1                 2                 3
     Eigenvalues --         1011.128433       3998.588241       4821.543913
           X                   0.999916         -0.011548          0.005837
           Y                   0.011547          0.999933          0.000228
           Z                  -0.005839         -0.000160          0.999983
 This molecule is an asymmetric top.
 Rotational symmetry number  1.
 Warning -- assumption of classical behavior for rotation
           may cause significant error
 Rotational temperatures (Kelvin)      0.08566     0.02166     0.01796
 Rotational constants (GHZ):           1.78488     0.45134     0.37431
 Zero-point vibrational energy     507172.9 (Joules/Mol)
                                  121.21722 (Kcal/Mol)
 Warning -- explicit consideration of  19 degrees of freedom as
           vibrations may cause significant error
 Vibrational temperatures:     52.92    76.93   129.93   148.94   207.51
          (Kelvin)            223.54   241.15   303.16   341.73   385.30
                              432.81   486.83   504.71   579.82   644.74
                              658.97   768.61   819.69   836.83   906.23
                              959.71  1094.71  1120.35  1129.39  1175.63
                             1227.50  1280.27  1401.98  1434.25  1462.71
                             1480.81  1525.33  1574.79  1612.20  1633.49
                             1729.61  1811.92  1864.92  1907.93  1923.01
                             1996.03  2025.02  2038.62  2061.17  2081.14
                             2138.56  2147.12  2156.78  2161.17  2170.57
                             2192.07  2272.50  2359.70  2388.79  2567.14
                             4396.75  4417.15  4437.19  4496.30  4508.38
                             4511.15  4540.16  4558.56  4608.97  5228.85
                             5437.05

 Zero-point correction=                           0.193172 (Hartree/Particle)
 Thermal correction to Energy=                    0.206221
 Thermal correction to Enthalpy=                  0.207165
 Thermal correction to Gibbs Free Energy=         0.152981
 Sum of electronic and zero-point Energies=           -626.083372
 Sum of electronic and thermal Energies=              -626.070323
 Sum of electronic and thermal Enthalpies=            -626.069378
 Sum of electronic and thermal Free Energies=         -626.123562

                     E (Thermal)             CV                S
                      KCal/Mol        Cal/Mol-Kelvin    Cal/Mol-Kelvin
 Total                  129.406             47.369            114.039
 Electronic               0.000              0.000              0.000
 Translational            0.889              2.981             41.488
 Rotational               0.889              2.981             31.345
 Vibrational            127.628             41.408             41.207
 Vibration     1          0.594              1.982              5.425
 Vibration     2          0.596              1.976              4.685
 Vibration     3          0.602              1.956              3.653
 Vibration     4          0.605              1.946              3.387
 Vibration     5          0.616              1.909              2.747
 Vibration     6          0.620              1.897              2.605
 Vibration     7          0.624              1.882              2.462
 Vibration     8          0.643              1.824              2.038
 Vibration     9          0.656              1.783              1.821
 Vibration    10          0.673              1.732              1.610
 Vibration    11          0.693              1.672              1.412
 Vibration    12          0.719              1.599              1.220
 Vibration    13          0.728              1.574              1.163
 Vibration    14          0.768              1.464              0.952
 Vibration    15          0.807              1.365              0.801
 Vibration    16          0.816              1.343              0.772
 Vibration    17          0.889              1.174              0.578
 Vibration    18          0.926              1.097              0.505
 Vibration    19          0.938              1.071              0.482

 Optimization completed.
    -- Stationary point found.
 Normal termination of Gaussian 16 at Fri Aug 16 14:00:02 2024.

 ----------------------------------------------------------------------
 # M062X/def2tzvp int=(grid=ultrafine) pop=nbo7 polar prop=efg volume g
 uess=read geom=check
 ----------------------------------------------------------------------

 ----------
 pyrmd1.xyz
 ----------
 Structure from the checkpoint file:  "pyrmd1_conf-2.chk"
 Charge =  0 Multiplicity = 1

 SCF Done:  E(RM062X) =  -626.203579555     A.U. after   12 cycles

  Exact polarizability:     175.768       7.354     123.157      -4.081       0.994      77.324
 Approx polarizability:     188.208      11.996     161.524      -6.999       1.589     102.365

 Summary of Natural Population Analysis:

                                     Natural Population
             Natural    ---------------------------------------------
  Atom No    Charge        Core      Valence    Rydberg      Total
 --------------------------------------------------------------------
    N  1   -0.77406      2.00000     5.75391    0.02016     7.77406
    C  2    0.56719      1.99999     3.40634    0.02648     5.43281
    N  3   -0.51828      1.99999     5.48552    0.03277     7.51828
    C  4    0.33744      1.99999     3.64259    0.01998     5.66256
    C  5   -0.65087      1.99999     4.64023    0.01065     6.65087
    C  6   -0.32440      1.99999     4.30653    0.01788     6.32440
    C  7    0.78412      1.99999     3.18069    0.03521     5.21588
    O  8   -0.51269      2.00000     6.49153    0.02117     8.51269
    C  9   -0.07570      1.99999     4.05984    0.01587     6.07570
    C 10   -0.63401      1.99999     4.62471    0.00931     6.63401
    O 11   -0.61543      2.00000     6.59010    0.02533     8.61543
    C 12    0.14545      1.99999     3.83259    0.02197     5.85455
    N 13   -0.50754      1.99999     5.47492    0.03263     7.50754
    H 14    0.40811      0.00000     0.59043    0.00146     0.59189
    H 15    0.40799      0.00000     0.59049    0.00153     0.59201
    H 16    0.24306      0.00000     0.75581    0.00113     0.75694
    H 17    0.22643      0.00000     0.77210    0.00146     0.77357
    H 18    0.24322      0.00000     0.75566    0.00112     0.75678
    H 19    0.19779      0.00000     0.79999    0.00222     0.80221
    H 20    0.18647      0.00000     0.81178    0.00175     0.81353
    H 21    0.22385      0.00000     0.77503    0.00111     0.77615
    H 22    0.21025      0.00000     0.78858    0.00117     0.78975
    H 23    0.21604      0.00000     0.78308    0.00088     0.78396
    H 24    0.21557      0.00000     0.78286    0.00157     0.78443
 ====================================================================
 * Total *  0.00000     25.99990    69.69527    0.30482    96.00000

 Normal termination of Gaussian 16 at Fri Aug 16 14:07:25 2024.
 Gaussian 16:  ES64L-G16RevC.01  3-Jul-2019

 --------------------------------------------------------------------
 # M062X/def2tzvp int=(grid=ultrafine) nmr=giao guess=read geom=check
 --------------------------------------------------------------------

 ----------
 pyrmd1.xyz
 ----------
 Structure from the checkpoint file:  "pyrmd1_conf-2.chk"
 Charge =  0 Multiplicity = 1

                         Standard orientation:
 ---------------------------------------------------------------------
 Center     Atomic      Atomic             Coordinates (Angstroms)
 Number     Number       Type             X           Y           Z
 ---------------------------------------------------------------------
      1          7           0       -4.087963   -0.823455    0.209588
      2          6           0       -2.769954   -0.544217    0.086234
      3          7           0       -2.424605    0.758717    0.114228
      4          6           0       -1.127559    1.054879    0.012684
      5          6           0       -0.786957    2.516697    0.048372
      6          6           0       -0.160022    0.027453   -0.120871
      7          6           0        1.283713    0.305719   -0.234287
      8          8           0        2.006193   -0.837236   -0.361623
      9          6           0        3.438832   -0.677324   -0.455370
     10          6           0        4.067307   -0.525018    0.920057
     11          8           0        1.796338    1.411625   -0.221181
     12          6           0       -0.651002   -1.287044   -0.141318
     13          7           0       -1.936545   -1.599861   -0.041465
     14          1           0       -4.395211   -1.775528    0.105532
     15          1           0       -4.747537   -0.064219    0.218715
     16          1           0       -0.256072    2.815044   -0.859121
     17          1           0       -1.708260    3.089986    0.154795
     18          1           0       -0.105272    2.736528    0.873877
     19          1           0        3.656906    0.187906   -1.085334
     20          1           0        3.779864   -1.586760   -0.954950
     21          1           0        3.725776    0.398120    1.393058
     22          1           0        3.805901   -1.371725    1.561164
     23          1           0        5.157598   -0.484065    0.829678
     24          1           0        0.043702   -2.115080   -0.244453
 ---------------------------------------------------------------------

 SCF Done:  E(RM062X) =  -626.203579555     A.U. after    1 cycles

      1  N    Isotropic =   160.1066   Anisotropy =   119.5057

      2  C    Isotropic =     1.7430   Anisotropy =   161.0717

      3  N    Isotropic =   -53.3316   Anisotropy =   428.0420

      4  C    Isotropic =   -17.5402   Anisotropy =   246.5200

      5  C    Isotropic =   155.6731   Anisotropy =    35.9980

      6  C    Isotropic =    53.9311   Anisotropy =   164.6291

      7  C    Isotropic =     1.0990   Anisotropy =   106.1471

      8  O    Isotropic =   113.1621   Anisotropy =   172.2638

      9  C    Isotropic =   121.9528   Anisotropy =    68.1615

     10  C    Isotropic =   170.4414   Anisotropy =    24.9686

     11  O    Isotropic =  -139.1882   Anisotropy =   684.6841

     12  C    Isotropic =    -2.1787   Anisotropy =   219.3477

     13  N    Isotropic =   -44.7280   Anisotropy =   469.8082

     14  H    Isotropic =    26.8052   Anisotropy =     9.5537

     15  H    Isotropic =    26.8029   Anisotropy =     9.3393

     16  H    Isotropic =    28.8799   Anisotropy =     5.6774

     17  H    Isotropic =    29.5129   Anisotropy =     7.3155

     18  H    Isotropic =    28.8506   Anisotropy =     5.6273

     19  H    Isotropic =    26.9588   Anisotropy =     5.1218

     20  H    Isotropic =    28.1149   Anisotropy =     7.2135

     21  H    Isotropic =    30.1482   Anisotropy =     6.2772

     22  H    Isotropic =    30.7707   Anisotropy =     8.1268

     23  H    Isotropic =    30.9750   Anisotropy =    10.4278

     24  H    Isotropic =    22.1208   Anisotropy =    10.0569

 The electronic state is 1-A.
 Alpha  occ. eigenvalues --  -19.66866 -19.61363 -14.77371 -14.75269 -14.75085
 Alpha  occ. eigenvalues --  -10.67761 -10.65644 -10.61108 -10.59842 -10.59561
 Alpha  occ. eigenvalues --  -10.55604 -10.53155 -10.52870  -1.22824  -1.13578
 Alpha  occ. eigenvalues --   -1.12203  -1.02227  -1.00339  -0.90345  -0.86412
 Alpha  occ. eigenvalues --   -0.82358  -0.76394  -0.73679  -0.71393  -0.65041
 Alpha  occ. eigenvalues --   -0.63497  -0.61305  -0.60454  -0.57088  -0.55973
 Alpha  occ. eigenvalues --   -0.54470  -0.52797  -0.52034  -0.50026  -0.48235
 Alpha  occ. eigenvalues --   -0.47499  -0.46596  -0.45356  -0.44892  -0.44399
 Alpha  occ. eigenvalues --   -0.41212  -0.40028  -0.39738  -0.37358  -0.37077
 Alpha  occ. eigenvalues --   -0.35354  -0.32314  -0.29283
 Alpha virt. eigenvalues --   -0.01226  -0.00322   0.06605   0.07414   0.08860
 Alpha virt. eigenvalues --    0.09409   0.10666   0.11244   0.11732   0.13014
 Alpha virt. eigenvalues --    0.13566   0.14611   0.15312   0.15586   0.16112

 Mulliken charges:
               1
     1  N   -0.501271
     2  C    0.410926
     3  N   -0.297739
     4  C    0.164754
     5  C   -0.455163
     6  C   -0.078552
     7  C    0.379087
     8  O   -0.290062
     9  C   -0.097950
    10  C   -0.432469
    11  O   -0.380899
    12  C   -0.061567
    13  N   -0.287213
    14  H    0.266469
    15  H    0.266011
    16  H    0.167563
    17  H    0.147760
    18  H    0.166925
    19  H    0.153111
    20  H    0.139320
    21  H    0.168538
    22  H    0.142595
    23  H    0.139931
    24  H    0.169896
 Sum of Mulliken charges =  -0.00000

 Dipole moment (field-independent basis, Debye):
    X=             -0.7594    Y=             -1.2305    Z=             -0.0784  Tot=              1.4480
 Quadrupole moment (field-independent basis, Debye-Ang):
   XX=            -57.2359   YY=            -78.7325   ZZ=            -77.3745
   XY=             -2.4214   XZ=              0.0104   YZ=              0.5094

 Normal termination of Gaussian 16 at Fri Aug 16 14:10:30 2024.
