 Gaussian 16, Revision C.01,

 ----------------------------------------------------------------------
 # B3LYP/6-31G(d,p) symmetry=loose empiricaldispersion=GD3BJ int=(grid=
 ultrafine) opt freq=noraman
 ----------------------------------------------------------------------

 ----------
 pyrmd7.xyz
 ----------
 Symbolic Z-matrix:
 Charge =  0 Multiplicity = 1

 SCF Done:  E(RB3LYP) =  -877.811808336     A.U. after   15 cycles
 SCF Done:  E(RB3LYP) =  -877.819258105     A.U. after   12 cycles
 SCF Done:  E(RB3LYP) =  -877.820058969     A.U. after   11 cycles
 SCF Done:  E(RB3LYP) =  -877.820163642     A.U. after   10 cycles
 SCF Done:  E(RB3LYP) =  -877.820174482     A.U. after    9 cycles
 SCF Done:  E(RB3LYP) =  -877.820175813     A.U. after    8 cycles
 Optimization completed.
    -- Stationary point found.
 Normal termination of Gaussian 16 at Wed Aug 14 20:29:48 2024.

 ----------------------------------------------------------------------
 #N Geom=AllCheck Guess=TCheck SCRF=Check GenChk RB3LYP/6-31G(d,p) Freq
 ----------------------------------------------------------------------

 Structure from the checkpoint file:  "pyrmd7_conf-1.chk"
 ----------
 pyrmd7.xyz
 ----------
 Charge =  0 Multiplicity = 1

 SCF Done:  E(RB3LYP) =  -877.820175813     A.U. after    1 cycles

                      1                      2                      3
                      A                      A                      A
 Frequencies --     96.3454               124.6077               141.7662
 Red. masses --      3.6272                 2.6995                 1.2210
 Frc consts  --      0.0198                 0.0247                 0.0145
 IR Inten    --      0.0364                 3.5896                 1.2048

                      4                      5                      6
                      A                      A                      A
 Frequencies --    157.6219               180.8897               234.7453
 Red. masses --      1.1427                 4.1221                 4.8662
 Frc consts  --      0.0167                 0.0795                 0.1580
 IR Inten    --      0.0021                 2.8867                 1.6616

                      7                      8                      9
                      A                      A                      A
 Frequencies --    251.9278               330.4965               363.5937
 Red. masses --      3.3479                 4.4184                 4.9767
 Frc consts  --      0.1252                 0.2843                 0.3876
 IR Inten    --      0.4814                 1.1913                 6.0690

                     10                     11                     12
                      A                      A                      A
 Frequencies --    407.2705               460.1582               534.1614
 Red. masses --     10.5156                 3.4875                 5.9957
 Frc consts  --      1.0277                 0.4351                 1.0079
 IR Inten    --      9.7586                 0.0092                 0.8779

                     13                     14                     15
                      A                      A                      A
 Frequencies --    576.6048               678.9017               689.4728
 Red. masses --      4.6772                 7.2269                 9.9867
 Frc consts  --      0.9162                 1.9625                 2.7971
 IR Inten    --      0.1619                14.0528                 0.0001

                     16                     17                     18
                      A                      A                      A
 Frequencies --    787.5363               801.5161               937.6078
 Red. masses --      8.1076                 6.3070                 6.6494
 Frc consts  --      2.9627                 2.3872                 3.4441
 IR Inten    --     17.0264                 3.7559                96.4035

                     19                     20                     21
                      A                      A                      A
 Frequencies --    959.1272              1025.0228              1051.2687
 Red. masses --      1.3585                 1.5140                 7.3660
 Frc consts  --      0.7363                 0.9372                 4.7964
 IR Inten    --      4.3461                18.7819                99.4787

                     22                     23                     24
                      A                      A                      A
 Frequencies --   1069.2536              1177.8037              1179.9790
 Red. masses --      1.4908                 1.2693                 6.4803
 Frc consts  --      1.0042                 1.0374                 5.3161
 IR Inten    --      2.0303                 0.6261                87.1819

                     25                     26                     27
                      A                      A                      A
 Frequencies --   1206.8232              1262.7987              1302.9228
 Red. masses --      1.4945                 3.3127                 4.2490
 Frc consts  --      1.2824                 3.1124                 4.2498
 IR Inten    --     21.2081                47.0352                62.4722

                     28                     29                     30
                      A                      A                      A
 Frequencies --   1361.8615              1389.0832              1432.8783
 Red. masses --      2.5762                 4.7434                 1.4819
 Frc consts  --      2.8151                 5.3925                 1.7927
 IR Inten    --     66.5316               108.3826                74.2616

                     31                     32                     33
                      A                      A                      A
 Frequencies --   1441.2311              1489.6062              1494.0166
 Red. masses --      1.6435                 1.0429                 1.0463
 Frc consts  --      2.0113                 1.3634                 1.3760
 IR Inten    --    213.8825                 6.3600                 6.5922

                     34                     35                     36
                      A                      A                      A
 Frequencies --   1502.5391              1508.6383              1523.6354
 Red. masses --      1.1007                 1.0557                 1.9945
 Frc consts  --      1.4640                 1.4157                 2.7280
 IR Inten    --      5.6642                23.0490                98.6108

                     37                     38                     39
                      A                      A                      A
 Frequencies --   1607.1481              1637.3907              3049.4959
 Red. masses --      8.3914                 6.0380                 1.0359
 Frc consts  --     12.7702                 9.5378                 5.6755
 IR Inten    --    239.7713               153.7032                21.0546

                     40                     41                     42
                      A                      A                      A
 Frequencies --   3066.6416              3108.4283              3135.2582
 Red. masses --      1.0294                 1.1009                 1.1032
 Frc consts  --      5.7040                 6.2671                 6.3893
 IR Inten    --     34.6610                11.3676                12.7313

                     43                     44                     45
                      A                      A                      A
 Frequencies --   3145.8898              3173.6432              3177.2504
 Red. masses --      1.1071                 1.0918                 1.1075
 Frc consts  --      6.4555                 6.4787                 6.5873
 IR Inten    --     17.0150                20.9315                18.0760

 - Thermochemistry -
 -------------------
 Temperature   298.150 Kelvin.  Pressure   1.00000 Atm.
 Atom     1 has atomic number 17 and mass  34.96885

 Molecular mass:   158.02469 amu.
 Principal axes and moments of inertia in atomic units:
                                 1                 2                 3
     Eigenvalues --         1009.399144       2081.855111       3068.783632
           X                   0.999994          0.003341         -0.000001
           Y                  -0.003341          0.999994         -0.000001
           Z                   0.000001          0.000001          1.000000
 This molecule is an asymmetric top.
 Rotational symmetry number  1.
 Warning -- assumption of classical behavior for rotation
           may cause significant error
 Rotational temperatures (Kelvin)      0.08581     0.04160     0.02822
 Rotational constants (GHZ):           1.78794     0.86689     0.58810
 Zero-point vibrational energy     336359.2 (Joules/Mol)
                                   80.39177 (Kcal/Mol)
 Warning -- explicit consideration of  13 degrees of freedom as
           vibrations may cause significant error
 Vibrational temperatures:    138.62   179.28   203.97   226.78   260.26
          (Kelvin)            337.75   362.47   475.51   523.13   585.97
                              662.06   768.54   829.61   976.79   992.00
                             1133.09  1153.20  1349.01  1379.97  1474.78
                             1512.54  1538.42  1694.60  1697.73  1736.35
                             1816.89  1874.62  1959.41  1998.58  2061.59
                             2073.61  2143.21  2149.56  2161.82  2170.59
                             2192.17  2312.33  2355.84  4387.54  4412.21
                             4472.34  4510.94  4526.23  4566.16  4571.35

 Zero-point correction=                           0.128112 (Hartree/Particle)
 Thermal correction to Energy=                    0.137624
 Thermal correction to Enthalpy=                  0.138568
 Thermal correction to Gibbs Free Energy=         0.092897
 Sum of electronic and zero-point Energies=           -877.692063
 Sum of electronic and thermal Energies=              -877.682552
 Sum of electronic and thermal Enthalpies=            -877.681608
 Sum of electronic and thermal Free Energies=         -877.727279

                     E (Thermal)             CV                S
                      KCal/Mol        Cal/Mol-Kelvin    Cal/Mol-Kelvin
 Total                   86.360             34.005             96.123
 Electronic               0.000              0.000              0.000
 Translational            0.889              2.981             41.082
 Rotational               0.889              2.981             30.246
 Vibrational             84.583             28.043             24.795
 Vibration     1          0.603              1.952              3.527
 Vibration     2          0.610              1.928              3.028
 Vibration     3          0.615              1.911              2.780
 Vibration     4          0.621              1.894              2.578
 Vibration     5          0.630              1.866              2.319
 Vibration     6          0.655              1.788              1.842
 Vibration     7          0.664              1.760              1.717
 Vibration     8          0.713              1.615              1.258
 Vibration     9          0.737              1.547              1.107
 Vibration    10          0.772              1.454              0.936
 Vibration    11          0.818              1.338              0.766
 Vibration    12          0.889              1.174              0.578
 Vibration    13          0.933              1.082              0.492

 Optimization completed.
    -- Stationary point found.
 Normal termination of Gaussian 16 at Wed Aug 14 20:30:49 2024.

 ----------------------------------------------------------------------
 # M062X/def2tzvp int=(grid=ultrafine) pop=nbo7 polar prop=efg volume g
 uess=read geom=check
 ----------------------------------------------------------------------

 ----------
 pyrmd7.xyz
 ----------
 Structure from the checkpoint file:  "pyrmd7_conf-1.chk"
 Charge =  0 Multiplicity = 1

 SCF Done:  E(RM062X) =  -877.770207637     A.U. after   12 cycles

  Exact polarizability:     129.823       3.051     107.909      -0.000      -0.000      60.607
 Approx polarizability:     153.577       1.029     133.996      -0.001      -0.000      83.009

 Summary of Natural Population Analysis:

                                     Natural Population
             Natural    ---------------------------------------------
  Atom No    Charge        Core      Valence    Rydberg      Total
 --------------------------------------------------------------------
   Cl  1    0.00320      9.99998     6.98110    0.01572    16.99680
    C  2    0.39397      1.99999     3.56941    0.03663     5.60603
    N  3   -0.46803      1.99999     5.43294    0.03510     7.46803
    C  4    0.07785      1.99999     3.90080    0.02136     5.92215
    C  5   -0.14038      1.99999     4.12459    0.01580     6.14038
    C  6   -0.62354      1.99999     4.61346    0.01009     6.62354
    C  7    0.54583      1.99999     3.43101    0.02317     5.45417
    O  8   -0.46544      2.00000     6.44295    0.02250     8.46544
    C  9   -0.25854      1.99999     4.24407    0.01448     6.25854
    N 10   -0.52802      1.99999     5.49209    0.03594     7.52802
    H 11    0.20123      0.00000     0.79709    0.00168     0.79877
    H 12    0.21931      0.00000     0.77947    0.00123     0.78069
    H 13    0.22996      0.00000     0.76862    0.00142     0.77004
    H 14    0.22996      0.00000     0.76862    0.00142     0.77004
    H 15    0.19499      0.00000     0.80384    0.00116     0.80501
    H 16    0.19382      0.00000     0.80467    0.00151     0.80618
    H 17    0.19382      0.00000     0.80467    0.00151     0.80618
 ====================================================================
 * Total *  0.00000     27.99991    53.75940    0.24070    82.00000

 Normal termination of Gaussian 16 at Wed Aug 14 20:34:27 2024.
 Gaussian 16:  ES64L-G16RevC.01  3-Jul-2019

 --------------------------------------------------------------------
 # M062X/def2tzvp int=(grid=ultrafine) nmr=giao guess=read geom=check
 --------------------------------------------------------------------

 ----------
 pyrmd7.xyz
 ----------
 Structure from the checkpoint file:  "pyrmd7_conf-1.chk"
 Charge =  0 Multiplicity = 1

                         Standard orientation:
 ---------------------------------------------------------------------
 Center     Atomic      Atomic             Coordinates (Angstroms)
 Number     Number       Type             X           Y           Z
 ---------------------------------------------------------------------
      1         17           0        2.947381    0.381338    0.000037
      2          6           0        1.293026   -0.206831   -0.000073
      3          7           0        1.135731   -1.515062   -0.000033
      4          6           0       -0.148783   -1.927990   -0.000011
      5          6           0       -1.239816   -1.074852   -0.000000
      6          6           0       -2.666035   -1.537470    0.000033
      7          6           0       -0.901569    0.297383   -0.000002
      8          8           0       -1.909960    1.178870    0.000014
      9          6           0       -1.563020    2.573267   -0.000010
     10          7           0        0.353872    0.736554   -0.000031
     11          1           0       -0.300654   -3.005348   -0.000004
     12          1           0       -2.720155   -2.628849   -0.000145
     13          1           0       -3.200987   -1.162810   -0.878678
     14          1           0       -3.200850   -1.163116    0.878960
     15          1           0       -2.514751    3.103396   -0.000003
     16          1           0       -0.979232    2.825751   -0.888035
     17          1           0       -0.979207    2.825774    0.887992
 ---------------------------------------------------------------------

 SCF Done:  E(RM062X) =  -877.770207637     A.U. after    1 cycles

      1  Cl   Isotropic =   549.5512   Anisotropy =   699.3481

      2  C    Isotropic =    -2.6848   Anisotropy =    94.3539

      3  N    Isotropic =   -85.9087   Anisotropy =   483.5354

      4  C    Isotropic =     2.9613   Anisotropy =   186.6345

      5  C    Isotropic =    49.5861   Anisotropy =   180.4550

      6  C    Isotropic =   171.8553   Anisotropy =    22.3751

      7  C    Isotropic =    -5.8434   Anisotropy =   160.5148

      8  O    Isotropic =   188.1281   Anisotropy =   119.8359

      9  C    Isotropic =   128.5713   Anisotropy =    72.3004

     10  N    Isotropic =   -51.7871   Anisotropy =   398.8415

     11  H    Isotropic =    23.0261   Anisotropy =     8.2697

     12  H    Isotropic =    29.8690   Anisotropy =     8.6209

     13  H    Isotropic =    29.6951   Anisotropy =     8.3872

     14  H    Isotropic =    29.6953   Anisotropy =     8.3883

     15  H    Isotropic =    28.0107   Anisotropy =     7.7057

     16  H    Isotropic =    27.8965   Anisotropy =     8.0930

     17  H    Isotropic =    27.8965   Anisotropy =     8.0930

 The electronic state is 1-A.
 Alpha  occ. eigenvalues -- -102.64195 -19.68638 -14.77109 -14.76395 -10.67271
 Alpha  occ. eigenvalues --  -10.66565 -10.60254 -10.60111 -10.57367 -10.55266
 Alpha  occ. eigenvalues --   -9.80479  -7.52672  -7.52172  -7.52126  -1.22901
 Alpha  occ. eigenvalues --   -1.11908  -1.00892  -0.95980  -0.90893  -0.83390
 Alpha  occ. eigenvalues --   -0.79835  -0.73430  -0.72122  -0.63271  -0.62352
 Alpha  occ. eigenvalues --   -0.58047  -0.54617  -0.52579  -0.52346  -0.50743
 Alpha  occ. eigenvalues --   -0.49357  -0.48233  -0.47192  -0.44617  -0.44087
 Alpha  occ. eigenvalues --   -0.39859  -0.39302  -0.38188  -0.36490  -0.34107
 Alpha  occ. eigenvalues --   -0.31123
 Alpha virt. eigenvalues --   -0.00862   0.00274   0.06358   0.07876   0.08511
 Alpha virt. eigenvalues --    0.10248   0.11503   0.12379   0.13389   0.13938
 Alpha virt. eigenvalues --    0.15000   0.15412   0.17395   0.17852   0.19615

 Mulliken charges:
               1
     1  Cl  -0.057100
     2  C    0.157525
     3  N   -0.232270
     4  C   -0.026697
     5  C   -0.039848
     6  C   -0.435644
     7  C    0.370573
     8  O   -0.272315
     9  C   -0.253101
    10  N   -0.287503
    11  H    0.148028
    12  H    0.141998
    13  H    0.162364
    14  H    0.162368
    15  H    0.150103
    16  H    0.155759
    17  H    0.155760
 Sum of Mulliken charges =  -0.00000

 Dipole moment (field-independent basis, Debye):
    X=             -3.8194    Y=              0.4808    Z=              0.0000  Tot=              3.8495
 Quadrupole moment (field-independent basis, Debye-Ang):
   XX=            -67.4990   YY=            -58.2967   ZZ=            -65.2564
   XY=              1.7852   XZ=              0.0000   YZ=             -0.0001

 Normal termination of Gaussian 16 at Wed Aug 14 20:35:39 2024.
