 Gaussian 16, Revision C.01,

 ----------------------------------------------------------------------
 # B3LYP/6-31G(d,p) symmetry=loose empiricaldispersion=GD3BJ int=(grid=
 ultrafine) opt=calcfc freq=noraman
 ----------------------------------------------------------------------

 ----------
 pyrmd1.xyz
 ----------
 Symbolic Z-matrix:
 Charge =  0 Multiplicity = 1

 SCF Done:  E(RB3LYP) =  -626.268267551     A.U. after   15 cycles
 SCF Done:  E(RB3LYP) =  -626.274168894     A.U. after   13 cycles
 SCF Done:  E(RB3LYP) =  -626.272796379     A.U. after   14 cycles
 SCF Done:  E(RB3LYP) =  -626.275030792     A.U. after   12 cycles
 SCF Done:  E(RB3LYP) =  -626.275138127     A.U. after   11 cycles
 SCF Done:  E(RB3LYP) =  -626.275164340     A.U. after   11 cycles
 SCF Done:  E(RB3LYP) =  -626.275168296     A.U. after    8 cycles
 SCF Done:  E(RB3LYP) =  -626.275172380     A.U. after   10 cycles
 SCF Done:  E(RB3LYP) =  -626.275172944     A.U. after    8 cycles
 SCF Done:  E(RB3LYP) =  -626.275173932     A.U. after    8 cycles
 SCF Done:  E(RB3LYP) =  -626.275174132     A.U. after    7 cycles
 SCF Done:  E(RB3LYP) =  -626.275174189     A.U. after    7 cycles
 Optimization completed.
    -- Stationary point found.
 Normal termination of Gaussian 16 at Fri Aug 16 13:57:08 2024.

 ----------------------------------------------------------------------
 #N Geom=AllCheck Guess=TCheck SCRF=Check GenChk RB3LYP/6-31G(d,p) Freq
 ----------------------------------------------------------------------

 Structure from the checkpoint file:  "pyrmd1_conf-4.chk"
 ----------
 pyrmd1.xyz
 ----------
 Charge =  0 Multiplicity = 1

 SCF Done:  E(RB3LYP) =  -626.275174189     A.U. after    1 cycles

                      1                      2                      3
                      A                      A                      A
 Frequencies --     31.1554                54.5014                98.0361
 Red. masses --      4.1597                 3.5559                 7.1349
 Frc consts  --      0.0024                 0.0062                 0.0404
 IR Inten    --      0.4923                 0.5075                 8.2713

                      4                      5                      6
                      A                      A                      A
 Frequencies --    105.2634               138.7381               154.8330
 Red. masses --      4.0465                 1.1646                 2.4894
 Frc consts  --      0.0264                 0.0132                 0.0352
 IR Inten    --      3.7768               244.2915                 0.8722

                      7                      8                      9
                      A                      A                      A
 Frequencies --    189.8421               213.1459               238.2864
 Red. masses --      1.3383                 2.1972                 1.2787
 Frc consts  --      0.0284                 0.0588                 0.0428
 IR Inten    --      2.2109                 0.0551                 1.4390

                     10                     11                     12
                      A                      A                      A
 Frequencies --    272.1886               310.0939               330.1512
 Red. masses --      5.6765                 5.6197                 2.8971
 Frc consts  --      0.2478                 0.3184                 0.1861
 IR Inten    --     13.9876                 2.9006                 7.5592

                     13                     14                     15
                      A                      A                      A
 Frequencies --    342.7752               410.6978               453.5377
 Red. masses --      2.8185                 4.8831                 3.2831
 Frc consts  --      0.1951                 0.4853                 0.3979
 IR Inten    --     10.6084                 9.5723                 6.8316

                     16                     17                     18
                      A                      A                      A
 Frequencies --    462.2093               543.6214               570.2042
 Red. masses --      3.3492                 3.1548                 1.1084
 Frc consts  --      0.4216                 0.5493                 0.2123
 IR Inten    --      2.6516                11.0745                 0.0136

                     19                     20                     21
                      A                      A                      A
 Frequencies --    577.3558               628.9299               662.4530
 Red. masses --      5.6068                 3.6665                 6.4615
 Frc consts  --      1.1012                 0.8545                 1.6707
 IR Inten    --      1.1731                 2.6405                 4.4698

                     22                     23                     24
                      A                      A                      A
 Frequencies --    759.5680               776.0740               788.6530
 Red. masses --      8.8076                 3.1138                 1.9768
 Frc consts  --      2.9939                 1.1050                 0.7244
 IR Inten    --      4.4742                 7.9720                 0.4802

                     25                     26                     27
                      A                      A                      A
 Frequencies --    817.7326               854.9315               889.8164
 Red. masses --      9.3182                 2.3864                 2.7483
 Frc consts  --      3.6712                 1.0277                 1.2821
 IR Inten    --     27.8509                 1.6275                 5.4314

                     28                     29                     30
                      A                      A                      A
 Frequencies --    973.3532              1013.3368              1017.3770
 Red. masses --      3.4077                 1.4467                 1.5906
 Frc consts  --      1.9022                 0.8753                 0.9700
 IR Inten    --      2.1789                 1.7056                 7.0459

                     31                     32                     33
                      A                      A                      A
 Frequencies --   1036.0236              1061.8483              1097.0174
 Red. masses --      3.5227                 1.6095                 2.0109
 Frc consts  --      2.2278                 1.0692                 1.4258
 IR Inten    --     17.8158                 4.4490                 0.2867

                     34                     35                     36
                      A                      A                      A
 Frequencies --   1120.7738              1133.8557              1203.7966
 Red. masses --      2.4421                 3.7372                 1.8261
 Frc consts  --      1.8074                 2.8308                 1.5591
 IR Inten    --     12.8786               200.4448                27.0456

                     37                     38                     39
                      A                      A                      A
 Frequencies --   1243.9458              1299.7694              1315.7540
 Red. masses --      3.6230                 4.1867                 2.6623
 Frc consts  --      3.3031                 4.1673                 2.7156
 IR Inten    --    146.6953               322.1816               181.6138

                     40                     41                     42
                      A                      A                      A
 Frequencies --   1336.0700              1389.5783              1408.3384
 Red. masses --      1.1188                 2.0820                 1.3716
 Frc consts  --      1.1767                 2.3686                 1.6028
 IR Inten    --     13.7892                39.2358                31.5832

                     43                     44                     45
                      A                      A                      A
 Frequencies --   1416.9583              1433.3100              1454.3760
 Red. masses --      1.3759                 1.4053                 2.1015
 Frc consts  --      1.6276                 1.7009                 2.6190
 IR Inten    --     27.0040                 7.3301               124.2874

                     46                     47                     48
                      A                      A                      A
 Frequencies --   1491.5458              1491.8890              1498.9628
 Red. masses --      1.5740                 1.0779                 1.0878
 Frc consts  --      2.0632                 1.4135                 1.4400
 IR Inten    --     15.1757                 7.5508                38.7014

                     49                     50                     51
                      A                      A                      A
 Frequencies --   1502.0135              1508.3236              1523.7145
 Red. masses --      1.1168                 1.8948                 1.0602
 Frc consts  --      1.4844                 2.5398                 1.4502
 IR Inten    --     27.1470                39.5672                 6.8292

                     52                     53                     54
                      A                      A                      A
 Frequencies --   1579.5254              1639.9108              1659.7515
 Red. masses --      6.6964                 2.8722                 3.0485
 Frc consts  --      9.8433                 4.5509                 4.9478
 IR Inten    --    112.9798                22.9297              1008.7640

                     55                     56                     57
                      A                      A                      A
 Frequencies --   1779.4747              3055.9362              3070.3111
 Red. masses --     11.3275                 1.0363                 1.0354
 Frc consts  --     21.1334                 5.7019                 5.7505
 IR Inten    --    255.1574                18.4131                 6.1250

                     58                     59                     60
                      A                      A                      A
 Frequencies --   3085.3773              3124.5019              3134.9093
 Red. masses --      1.0587                 1.1027                 1.0994
 Frc consts  --      5.9378                 6.3429                 6.3656
 IR Inten    --     31.7774                23.0694                 6.6726

                     61                     62                     63
                      A                      A                      A
 Frequencies --   3137.6175              3157.1346              3169.0016
 Red. masses --      1.1048                 1.1059                 1.1053
 Frc consts  --      6.4081                 6.4948                 6.5400
 IR Inten    --     10.7479                22.6546                12.5279

                     64                     65                     66
                      A                      A                      A
 Frequencies --   3195.3043              3634.3020              3779.0256
 Red. masses --      1.0917                 1.0442                 1.1065
 Frc consts  --      6.5670                 8.1256                 9.3105
 IR Inten    --      2.8336               141.5487                59.1948

 - Thermochemistry -
 -------------------
 Temperature   298.150 Kelvin.  Pressure   1.00000 Atm.
 Atom     1 has atomic number  7 and mass  14.00307

 Molecular mass:   181.08513 amu.
 Principal axes and moments of inertia in atomic units:
                                 1                 2                 3
     Eigenvalues --          911.039214       4060.586593       4781.881007
           X                   0.999981         -0.003744         -0.004946
           Y                   0.003719          0.999981         -0.004938
           Z                   0.004964          0.004920          0.999976
 This molecule is an asymmetric top.
 Rotational symmetry number  1.
 Warning -- assumption of classical behavior for rotation
           may cause significant error
 Rotational temperatures (Kelvin)      0.09507     0.02133     0.01811
 Rotational constants (GHZ):           1.98097     0.44445     0.37741
 Zero-point vibrational energy     507508.6 (Joules/Mol)
                                  121.29746 (Kcal/Mol)
 Warning -- explicit consideration of  19 degrees of freedom as
           vibrations may cause significant error
 Vibrational temperatures:     44.83    78.42   141.05   151.45   199.61
          (Kelvin)            222.77   273.14   306.67   342.84   391.62
                              446.16   475.01   493.18   590.90   652.54
                              665.02   782.15   820.40   830.69   904.89
                              953.12  1092.85  1116.60  1134.70  1176.53
                             1230.06  1280.25  1400.44  1457.97  1463.78
                             1490.61  1527.76  1578.36  1612.54  1631.37
                             1731.99  1789.76  1870.08  1893.08  1922.31
                             1999.29  2026.28  2038.69  2062.21  2092.52
                             2146.00  2146.50  2156.67  2161.06  2170.14
                             2192.29  2272.58  2359.47  2388.01  2560.27
                             4396.81  4417.49  4439.17  4495.46  4510.44
                             4514.33  4542.41  4559.49  4597.33  5228.95
                             5437.17

 Zero-point correction=                           0.193300 (Hartree/Particle)
 Thermal correction to Energy=                    0.206291
 Thermal correction to Enthalpy=                  0.207235
 Thermal correction to Gibbs Free Energy=         0.153170
 Sum of electronic and zero-point Energies=           -626.081874
 Sum of electronic and thermal Energies=              -626.068884
 Sum of electronic and thermal Enthalpies=            -626.067939
 Sum of electronic and thermal Free Energies=         -626.122004

                     E (Thermal)             CV                S
                      KCal/Mol        Cal/Mol-Kelvin    Cal/Mol-Kelvin
 Total                  129.449             47.281            113.789
 Electronic               0.000              0.000              0.000
 Translational            0.889              2.981             41.488
 Rotational               0.889              2.981             31.248
 Vibrational            127.672             41.319             41.053
 Vibration     1          0.594              1.983              5.754
 Vibration     2          0.596              1.976              4.647
 Vibration     3          0.603              1.951              3.493
 Vibration     4          0.605              1.945              3.354
 Vibration     5          0.614              1.915              2.821
 Vibration     6          0.620              1.897              2.612
 Vibration     7          0.633              1.854              2.229
 Vibration     8          0.644              1.821              2.017
 Vibration     9          0.656              1.782              1.816
 Vibration    10          0.675              1.725              1.582
 Vibration    11          0.699              1.654              1.362
 Vibration    12          0.713              1.615              1.259
 Vibration    13          0.722              1.590              1.199
 Vibration    14          0.775              1.447              0.924
 Vibration    15          0.812              1.353              0.785
 Vibration    16          0.820              1.334              0.760
 Vibration    17          0.899              1.154              0.558
 Vibration    18          0.926              1.096              0.504
 Vibration    19          0.934              1.080              0.490

 Optimization completed.
    -- Stationary point found.
 Normal termination of Gaussian 16 at Fri Aug 16 13:58:58 2024.

 ----------------------------------------------------------------------
 # M062X/def2tzvp int=(grid=ultrafine) pop=nbo7 polar prop=efg volume g
 uess=read geom=check
 ----------------------------------------------------------------------

 ----------
 pyrmd1.xyz
 ----------
 Structure from the checkpoint file:  "pyrmd1_conf-4.chk"
 Charge =  0 Multiplicity = 1

 SCF Done:  E(RM062X) =  -626.201770395     A.U. after   12 cycles

  Exact polarizability:     179.205      -0.259     119.420       4.171      -0.039      76.997
 Approx polarizability:     190.609       3.218     158.700       6.782       0.246     102.171

 Summary of Natural Population Analysis:

                                     Natural Population
             Natural    ---------------------------------------------
  Atom No    Charge        Core      Valence    Rydberg      Total
 --------------------------------------------------------------------
    N  1   -0.77419      2.00000     5.75406    0.02013     7.77419
    C  2    0.56695      1.99999     3.40658    0.02648     5.43305
    N  3   -0.52055      1.99999     5.48779    0.03277     7.52055
    C  4    0.32890      1.99999     3.65137    0.01974     5.67110
    C  5   -0.64705      1.99999     4.63679    0.01027     6.64705
    C  6   -0.32520      1.99999     4.30726    0.01796     6.32520
    C  7    0.78457      1.99999     3.18005    0.03539     5.21543
    O  8   -0.51126      2.00000     6.48921    0.02205     8.51126
    C  9   -0.07636      1.99999     4.06047    0.01590     6.07636
    C 10   -0.63422      1.99999     4.62489    0.00934     6.63422
    O 11   -0.61665      2.00000     6.59160    0.02505     8.61665
    C 12    0.15218      1.99999     3.82548    0.02235     5.84782
    N 13   -0.50437      1.99999     5.47191    0.03247     7.50437
    H 14    0.40859      0.00000     0.58995    0.00146     0.59141
    H 15    0.40760      0.00000     0.59088    0.00153     0.59240
    H 16    0.23599      0.00000     0.76288    0.00113     0.76401
    H 17    0.22933      0.00000     0.76921    0.00145     0.77067
    H 18    0.23705      0.00000     0.76188    0.00107     0.76295
    H 19    0.19985      0.00000     0.79794    0.00221     0.80015
    H 20    0.18592      0.00000     0.81233    0.00175     0.81408
    H 21    0.22585      0.00000     0.77303    0.00112     0.77415
    H 22    0.20890      0.00000     0.78992    0.00118     0.79110
    H 23    0.21674      0.00000     0.78239    0.00087     0.78326
    H 24    0.22142      0.00000     0.77695    0.00163     0.77858
 ====================================================================
 * Total *  0.00000     25.99990    69.69481    0.30529    96.00000

 Normal termination of Gaussian 16 at Fri Aug 16 14:05:38 2024.
 Gaussian 16:  ES64L-G16RevC.01  3-Jul-2019

 --------------------------------------------------------------------
 # M062X/def2tzvp int=(grid=ultrafine) nmr=giao guess=read geom=check
 --------------------------------------------------------------------

 ----------
 pyrmd1.xyz
 ----------
 Structure from the checkpoint file:  "pyrmd1_conf-4.chk"
 Charge =  0 Multiplicity = 1

                         Standard orientation:
 ---------------------------------------------------------------------
 Center     Atomic      Atomic             Coordinates (Angstroms)
 Number     Number       Type             X           Y           Z
 ---------------------------------------------------------------------
      1          7           0        4.219861    0.023279    0.202167
      2          6           0        2.875913   -0.100747    0.108517
      3          7           0        2.166343    1.043500    0.052328
      4          6           0        0.838756    0.947006   -0.060618
      5          6           0        0.110157    2.261448   -0.117067
      6          6           0        0.213267   -0.322565   -0.116277
      7          6           0       -1.230373   -0.616237   -0.238226
      8          8           0       -2.004266    0.492130   -0.321146
      9          6           0       -3.429345    0.265399   -0.422474
     10          6           0       -4.045988    0.022434    0.944931
     11          8           0       -1.688294   -1.745652   -0.266152
     12          6           0        1.066354   -1.435587   -0.039824
     13          7           0        2.384731   -1.359101    0.071704
     14          1           0        4.776249   -0.804553    0.332235
     15          1           0        4.618457    0.939247    0.318606
     16          1           0       -0.618666    2.340280    0.693236
     17          1           0        0.840464    3.067362   -0.042955
     18          1           0       -0.455164    2.354240   -1.047718
     19          1           0       -3.604322   -0.581001   -1.089908
     20          1           0       -3.814497    1.178563   -0.881460
     21          1           0       -3.656934   -0.901601    1.377424
     22          1           0       -3.827092    0.853282    1.621912
     23          1           0       -5.132939   -0.069720    0.852587
     24          1           0        0.625943   -2.428580   -0.072742
 ---------------------------------------------------------------------

 SCF Done:  E(RM062X) =  -626.201770395     A.U. after    1 cycles

      1  N    Isotropic =   160.2125   Anisotropy =   119.5057

      2  C    Isotropic =     1.3008   Anisotropy =   159.6788

      3  N    Isotropic =   -50.6466   Anisotropy =   426.0468

      4  C    Isotropic =   -13.2196   Anisotropy =   239.7362

      5  C    Isotropic =   155.0134   Anisotropy =    36.1196

      6  C    Isotropic =    53.3236   Anisotropy =   166.3220

      7  C    Isotropic =    -0.0844   Anisotropy =   101.5658

      8  O    Isotropic =    99.2358   Anisotropy =   176.1650

      9  C    Isotropic =   121.6805   Anisotropy =    68.5909

     10  C    Isotropic =   170.1528   Anisotropy =    25.1294

     11  O    Isotropic =  -112.0728   Anisotropy =   659.6627

     12  C    Isotropic =    -5.6114   Anisotropy =   226.1902

     13  N    Isotropic =   -47.8178   Anisotropy =   474.9228

     14  H    Isotropic =    26.7994   Anisotropy =     9.6574

     15  H    Isotropic =    26.8192   Anisotropy =     9.2235

     16  H    Isotropic =    28.9950   Anisotropy =     5.6086

     17  H    Isotropic =    29.5293   Anisotropy =     7.5146

     18  H    Isotropic =    29.0353   Anisotropy =     5.1590

     19  H    Isotropic =    26.9229   Anisotropy =     5.4378

     20  H    Isotropic =    28.0546   Anisotropy =     6.7808

     21  H    Isotropic =    30.0606   Anisotropy =     6.4551

     22  H    Isotropic =    30.7873   Anisotropy =     7.8290

     23  H    Isotropic =    30.9458   Anisotropy =    10.5455

     24  H    Isotropic =    21.8971   Anisotropy =     9.4199

 The electronic state is 1-A.
 Alpha  occ. eigenvalues --  -19.67140 -19.61145 -14.77360 -14.75208 -14.75131
 Alpha  occ. eigenvalues --  -10.67744 -10.65618 -10.61332 -10.59729 -10.59565
 Alpha  occ. eigenvalues --  -10.55607 -10.53474 -10.53298  -1.22983  -1.13563
 Alpha  occ. eigenvalues --   -1.12184  -1.02220  -1.00323  -0.90289  -0.86381
 Alpha  occ. eigenvalues --   -0.82841  -0.76815  -0.72898  -0.72025  -0.65146
 Alpha  occ. eigenvalues --   -0.63814  -0.61086  -0.60202  -0.57578  -0.55909
 Alpha  occ. eigenvalues --   -0.54359  -0.52730  -0.52306  -0.49681  -0.48469
 Alpha  occ. eigenvalues --   -0.48091  -0.46791  -0.45910  -0.45236  -0.43678
 Alpha  occ. eigenvalues --   -0.41170  -0.40162  -0.39793  -0.37449  -0.37155
 Alpha  occ. eigenvalues --   -0.35467  -0.32345  -0.29231
 Alpha virt. eigenvalues --   -0.01223  -0.00334   0.06280   0.06830   0.08729
 Alpha virt. eigenvalues --    0.09844   0.10806   0.10875   0.11401   0.13432
 Alpha virt. eigenvalues --    0.13620   0.13986   0.14728   0.15209   0.16013

 Mulliken charges:
               1
     1  N   -0.501185
     2  C    0.411496
     3  N   -0.300936
     4  C    0.182263
     5  C   -0.468098
     6  C   -0.099963
     7  C    0.382304
     8  O   -0.290231
     9  C   -0.107130
    10  C   -0.429847
    11  O   -0.379226
    12  C   -0.053486
    13  N   -0.286204
    14  H    0.267212
    15  H    0.265480
    16  H    0.162308
    17  H    0.151728
    18  H    0.163291
    19  H    0.157260
    20  H    0.137955
    21  H    0.171867
    22  H    0.140579
    23  H    0.141308
    24  H    0.181257
 Sum of Mulliken charges =  -0.00000

 Dipole moment (field-independent basis, Debye):
    X=              0.4814    Y=              2.3474    Z=              0.4312  Tot=              2.4347
 Quadrupole moment (field-independent basis, Debye-Ang):
   XX=            -56.4445   YY=            -81.1004   ZZ=            -77.1080
   XY=             -3.2439   XZ=              2.4085   YZ=             -0.5937

 Normal termination of Gaussian 16 at Fri Aug 16 14:08:14 2024.
