 Gaussian 16, Revision C.01,

 ----------------------------------------------------------------------
 # B3LYP/6-31G(d,p) symmetry=loose empiricaldispersion=GD3BJ int=(grid=
 ultrafine) opt freq=noraman
 ----------------------------------------------------------------------

 ----------
 pyrmd5.xyz
 ----------
 Symbolic Z-matrix:
 Charge =  0 Multiplicity = 1

 SCF Done:  E(RB3LYP) =  -648.093008449     A.U. after   15 cycles
 SCF Done:  E(RB3LYP) =  -648.097499408     A.U. after   12 cycles
 SCF Done:  E(RB3LYP) =  -648.097931865     A.U. after   11 cycles
 SCF Done:  E(RB3LYP) =  -648.097945026     A.U. after    9 cycles
 SCF Done:  E(RB3LYP) =  -648.097881336     A.U. after   11 cycles
 SCF Done:  E(RB3LYP) =  -648.097947102     A.U. after   11 cycles
 Optimization completed.
    -- Stationary point found.
 Normal termination of Gaussian 16 at Wed Aug 14 20:27:44 2024.

 ----------------------------------------------------------------------
 #N Geom=AllCheck Guess=TCheck SCRF=Check GenChk RB3LYP/6-31G(d,p) Freq
 ----------------------------------------------------------------------

 Structure from the checkpoint file:  "pyrmd5_conf-1.chk"
 ----------
 pyrmd5.xyz
 ----------
 Charge =  0 Multiplicity = 1

 SCF Done:  E(RB3LYP) =  -648.097947102     A.U. after    1 cycles

                      1                      2                      3
                      A                      A                      A
 Frequencies --     44.4957                54.1364               112.5410
 Red. masses --      4.7438                 5.1268                 1.1314
 Frc consts  --      0.0055                 0.0089                 0.0084
 IR Inten    --      0.3794                 0.3180                 3.4399

                      4                      5                      6
                      A                      A                      A
 Frequencies --    118.8082               128.2045               150.1939
 Red. masses --      5.5355                 3.2120                 3.3309
 Frc consts  --      0.0460                 0.0311                 0.0443
 IR Inten    --      1.1102                 8.0804                 0.5510

                      7                      8                      9
                      A                      A                      A
 Frequencies --    211.9608               222.6890               303.2735
 Red. masses --      5.5486                 4.2172                 6.6059
 Frc consts  --      0.1469                 0.1232                 0.3580
 IR Inten    --      5.1911                 1.4435                 1.9661

                     10                     11                     12
                      A                      A                      A
 Frequencies --    309.1024               322.3325               415.7316
 Red. masses --      4.0829                 3.3573                 3.0038
 Frc consts  --      0.2298                 0.2055                 0.3059
 IR Inten    --      0.1238                 4.1051                 0.0447

                     13                     14                     15
                      A                      A                      A
 Frequencies --    430.0819               453.1169               491.1161
 Red. masses --      3.3426                 6.8596                 3.5240
 Frc consts  --      0.3643                 0.8298                 0.5008
 IR Inten    --      1.4179                 8.2077                 0.0117

                     16                     17                     18
                      A                      A                      A
 Frequencies --    526.9877               585.3004               633.9079
 Red. masses --      5.0719                 5.4095                 6.3737
 Frc consts  --      0.8299                 1.0919                 1.5090
 IR Inten    --      1.3706                 8.4036                 0.3702

                     19                     20                     21
                      A                      A                      A
 Frequencies --    633.9318               668.4229               707.3928
 Red. masses --      3.4359                 7.2495                 1.8425
 Frc consts  --      0.8135                 1.9084                 0.5432
 IR Inten    --      1.8962                 0.8483                25.4093

                     22                     23                     24
                      A                      A                      A
 Frequencies --    736.0667               769.7290               826.7282
 Red. masses --      6.4225                 2.0180                 4.9888
 Frc consts  --      2.0502                 0.7044                 2.0089
 IR Inten    --     17.4064                41.3039                55.9321

                     25                     26                     27
                      A                      A                      A
 Frequencies --    845.7462               870.4320               921.0633
 Red. masses --      4.5987                 1.2462                 6.7053
 Frc consts  --      1.9381                 0.5563                 3.3516
 IR Inten    --      0.8833                 0.0031                 7.5074

                     28                     29                     30
                      A                      A                      A
 Frequencies --    961.8890               989.1290               995.3304
 Red. masses --      1.4225                 1.4509                 1.3494
 Frc consts  --      0.7755                 0.8364                 0.7877
 IR Inten    --      1.8862                 1.4000                 0.0010

                     31                     32                     33
                      A                      A                      A
 Frequencies --   1007.8697              1012.3774              1021.3247
 Red. masses --      1.7078                 1.2817                 6.1979
 Frc consts  --      1.0221                 0.7740                 3.8091
 IR Inten    --      3.6242                 0.0721                 2.7732

                     34                     35                     36
                      A                      A                      A
 Frequencies --   1030.4115              1055.0566              1061.6806
 Red. masses --      1.7260                 2.2227                 1.6595
 Frc consts  --      1.0797                 1.4578                 1.1021
 IR Inten    --      0.7082                10.9463                 3.2841

                     37                     38                     39
                      A                      A                      A
 Frequencies --   1107.6709              1120.7269              1180.7730
 Red. masses --      1.5674                 2.9533                 3.3915
 Frc consts  --      1.1330                 2.1855                 2.7859
 IR Inten    --      6.2863                 4.3114                84.9856

                     40                     41                     42
                      A                      A                      A
 Frequencies --   1188.8325              1205.8169              1274.0425
 Red. masses --      1.1055                 1.2767                 4.9980
 Frc consts  --      0.9205                 1.0937                 4.7798
 IR Inten    --      0.6531                 8.9961                 6.0913

                     43                     44                     45
                      A                      A                      A
 Frequencies --   1276.8062              1333.3945              1358.3448
 Red. masses --      2.0433                 2.3570                 2.2557
 Frc consts  --      1.9626                 2.4691                 2.4522
 IR Inten    --     85.6353                42.1482                71.2500

                     46                     47                     48
                      A                      A                      A
 Frequencies --   1371.3426              1409.5449              1431.0278
 Red. masses --      4.5322                 1.5400                 1.8791
 Frc consts  --      5.0217                 1.8027                 2.2672
 IR Inten    --     19.9576                 2.0985                25.5182

                     49                     50                     51
                      A                      A                      A
 Frequencies --   1438.8881              1467.3130              1491.4902
 Red. masses --      1.8436                 2.8888                 1.3423
 Frc consts  --      2.2489                 3.6645                 1.7593
 IR Inten    --     59.8332               226.6589                30.3347

                     52                     53                     54
                      A                      A                      A
 Frequencies --   1500.0626              1500.3810              1538.8968
 Red. masses --      1.0442                 1.8972                 2.5099
 Frc consts  --      1.3843                 2.5163                 3.5021
 IR Inten    --      7.9812                 1.2824                28.6404

                     55                     56                     57
                      A                      A                      A
 Frequencies --   1583.8834              1627.3589              1640.5674
 Red. masses --      7.2828                 5.9795                 6.0423
 Frc consts  --     10.7646                 9.3301                 9.5817
 IR Inten    --     90.7375               604.5929                31.0262

                     58                     59                     60
                      A                      A                      A
 Frequencies --   1663.0392              1786.7155              2939.8446
 Red. masses --      5.8113                 9.4670                 1.0838
 Frc consts  --      9.4695                17.8063                 5.5187
 IR Inten    --      4.7686               251.2835               131.7961

                     61                     62                     63
                      A                      A                      A
 Frequencies --   3055.4793              3114.5737              3166.4722
 Red. masses --      1.0384                 1.1004                 1.1012
 Frc consts  --      5.7120                 6.2894                 6.5053
 IR Inten    --      9.0171                 8.0761                 4.9988

                     64                     65                     66
                      A                      A                      A
 Frequencies --   3183.8207              3187.2857              3195.2110
 Red. masses --      1.0857                 1.0917                 1.0903
 Frc consts  --      6.4842                 6.5340                 6.5586
 IR Inten    --      0.0269                 4.2859                17.2456

                     67                     68                     69
                      A                      A                      A
 Frequencies --   3206.7814              3231.3234              3232.4798
 Red. masses --      1.0958                 1.0920                 1.0934
 Frc consts  --      6.6394                 6.7179                 6.7314
 IR Inten    --     30.6648                 3.8116                 4.9526

 - Thermochemistry -
 -------------------
 Temperature   298.150 Kelvin.  Pressure   1.00000 Atm.
 Atom     1 has atomic number  8 and mass  15.99491

 Molecular mass:   198.07931 amu.
 Principal axes and moments of inertia in atomic units:
                                 1                 2                 3
     Eigenvalues --         1045.206925       5808.435588       6842.445515
           X                   0.999893         -0.014599          0.000000
           Y                   0.014599          0.999893          0.000004
           Z                  -0.000000         -0.000004          1.000000
 This molecule is an asymmetric top.
 Rotational symmetry number  1.
 Warning -- assumption of classical behavior for rotation
           may cause significant error
 Rotational temperatures (Kelvin)      0.08287     0.01491     0.01266
 Rotational constants (GHZ):           1.72668     0.31071     0.26376
 Zero-point vibrational energy     512233.5 (Joules/Mol)
                                  122.42674 (Kcal/Mol)
 Warning -- explicit consideration of  17 degrees of freedom as
           vibrations may cause significant error
 Vibrational temperatures:     64.02    77.89   161.92   170.94   184.46
          (Kelvin)            216.10   304.96   320.40   436.34   444.73
                              463.76   598.15   618.79   651.93   706.61
                              758.22   842.12   912.05   912.09   961.71
                             1017.78  1059.04  1107.47  1189.48  1216.84
                             1252.36  1325.20  1383.94  1423.14  1432.06
                             1450.10  1456.59  1469.46  1482.53  1517.99
                             1527.52  1593.69  1612.48  1698.87  1710.46
                             1734.90  1833.06  1837.04  1918.46  1954.36
                             1973.06  2028.02  2058.93  2070.24  2111.14
                             2145.92  2158.26  2158.71  2214.13  2278.86
                             2341.41  2360.41  2392.74  2570.69  4229.78
                             4396.15  4481.18  4555.85  4580.81  4585.79
                             4597.20  4613.84  4649.15  4650.82

 Zero-point correction=                           0.195099 (Hartree/Particle)
 Thermal correction to Energy=                    0.207544
 Thermal correction to Enthalpy=                  0.208489
 Thermal correction to Gibbs Free Energy=         0.155386
 Sum of electronic and zero-point Energies=           -647.902848
 Sum of electronic and thermal Energies=              -647.890403
 Sum of electronic and thermal Enthalpies=            -647.889459
 Sum of electronic and thermal Free Energies=         -647.942561

                     E (Thermal)             CV                S
                      KCal/Mol        Cal/Mol-Kelvin    Cal/Mol-Kelvin
 Total                  130.236             47.214            111.763
 Electronic               0.000              0.000              0.000
 Translational            0.889              2.981             41.755
 Rotational               0.889              2.981             32.096
 Vibrational            128.459             41.252             37.911
 Vibration     1          0.595              1.980              5.048
 Vibration     2          0.596              1.976              4.660
 Vibration     3          0.607              1.939              3.225
 Vibration     4          0.609              1.934              3.120
 Vibration     5          0.611              1.925              2.973
 Vibration     6          0.618              1.902              2.670
 Vibration     7          0.643              1.823              2.027
 Vibration     8          0.648              1.807              1.937
 Vibration     9          0.695              1.667              1.399
 Vibration    10          0.698              1.656              1.367
 Vibration    11          0.707              1.631              1.298
 Vibration    12          0.779              1.436              0.907
 Vibration    13          0.791              1.405              0.858
 Vibration    14          0.812              1.354              0.786
 Vibration    15          0.847              1.270              0.681
 Vibration    16          0.882              1.190              0.594
 Vibration    17          0.942              1.063              0.476

 Optimization completed.
    -- Stationary point found.
 Normal termination of Gaussian 16 at Wed Aug 14 20:29:56 2024.

 ----------------------------------------------------------------------
 # M062X/def2tzvp int=(grid=ultrafine) pop=nbo7 polar prop=efg volume g
 uess=read geom=check
 ----------------------------------------------------------------------

 ----------
 pyrmd5.xyz
 ----------
 Structure from the checkpoint file:  "pyrmd5_conf-1.chk"
 Charge =  0 Multiplicity = 1

 SCF Done:  E(RM062X) =  -647.999129062     A.U. after   12 cycles

  Exact polarizability:     257.425       2.283     156.030      -0.001       0.001      80.110
 Approx polarizability:     280.094       7.686     218.582      -0.002      -0.001     114.429

 Summary of Natural Population Analysis:

                                     Natural Population
             Natural    ---------------------------------------------
  Atom No    Charge        Core      Valence    Rydberg      Total
 --------------------------------------------------------------------
    O  1   -0.51317      2.00000     6.48813    0.02504     8.51317
    C  2    0.40686      1.99999     3.56302    0.03013     5.59314
    C  3   -0.28069      1.99999     4.26362    0.01708     6.28069
    C  4    0.14356      1.99999     3.83452    0.02192     5.85644
    N  5   -0.45818      1.99999     5.42793    0.03026     7.45818
    C  6    0.30815      1.99999     3.67250    0.01937     5.69185
    C  7   -0.66149      1.99999     4.65108    0.01042     6.66149
    N  8   -0.47374      1.99999     5.44240    0.03135     7.47374
    C  9    0.42702      1.99999     3.54738    0.02561     5.57298
    C 10   -0.11291      1.99999     4.09384    0.01908     6.11291
    C 11   -0.16652      1.99999     4.15061    0.01592     6.16652
    C 12   -0.21765      1.99999     4.20134    0.01632     6.21765
    C 13   -0.18896      1.99999     4.17266    0.01631     6.18896
    C 14   -0.21691      1.99999     4.20062    0.01630     6.21691
    C 15   -0.16487      1.99999     4.14900    0.01587     6.16487
    H 16    0.12119      0.00000     0.87591    0.00290     0.87881
    H 17    0.21919      0.00000     0.77892    0.00190     0.78081
    H 18    0.23046      0.00000     0.76851    0.00102     0.76954
    H 19    0.24280      0.00000     0.75587    0.00133     0.75720
    H 20    0.23047      0.00000     0.76851    0.00102     0.76953
    H 21    0.23667      0.00000     0.76190    0.00143     0.76333
    H 22    0.21643      0.00000     0.78239    0.00117     0.78357
    H 23    0.21538      0.00000     0.78351    0.00111     0.78462
    H 24    0.21712      0.00000     0.78172    0.00117     0.78288
    H 25    0.23980      0.00000     0.75884    0.00136     0.76020
 ====================================================================
 * Total *  0.00000     29.99988    73.67473    0.32539   104.00000

 Normal termination of Gaussian 16 at Wed Aug 14 20:38:12 2024.
 Gaussian 16:  ES64L-G16RevC.01  3-Jul-2019

 --------------------------------------------------------------------
 # M062X/def2tzvp int=(grid=ultrafine) nmr=giao guess=read geom=check
 --------------------------------------------------------------------

 ----------
 pyrmd5.xyz
 ----------
 Structure from the checkpoint file:  "pyrmd5_conf-1.chk"
 Charge =  0 Multiplicity = 1

                         Standard orientation:
 ---------------------------------------------------------------------
 Center     Atomic      Atomic             Coordinates (Angstroms)
 Number     Number       Type             X           Y           Z
 ---------------------------------------------------------------------
      1          8           0       -4.551997   -1.342752    0.000389
      2          6           0       -3.946718   -0.285453   -0.000161
      3          6           0       -2.475551   -0.185641   -0.000112
      4          6           0       -1.700735   -1.353595   -0.000138
      5          7           0       -0.373835   -1.346421   -0.000130
      6          6           0       -1.768847    1.034541   -0.000046
      7          6           0       -2.448969    2.378442   -0.000029
      8          7           0       -0.433825    1.045631   -0.000051
      9          6           0        0.217851   -0.132773   -0.000108
     10          6           0        1.693609   -0.094401   -0.000034
     11          6           0        2.372142    1.134688    0.000046
     12          6           0        3.762785    1.165667    0.000114
     13          6           0        4.491072   -0.026220    0.000104
     14          6           0        3.821795   -1.252011    0.000025
     15          6           0        2.431124   -1.289146   -0.000042
     16          1           0       -4.496710    0.677375    0.000406
     17          1           0       -2.202262   -2.318569   -0.000186
     18          1           0       -3.085449    2.503542    0.881864
     19          1           0       -1.687609    3.158452    0.000036
     20          1           0       -3.085365    2.503608   -0.881974
     21          1           0        1.790791    2.048614    0.000052
     22          1           0        4.281300    2.119425    0.000174
     23          1           0        5.576509    0.000294    0.000159
     24          1           0        4.386002   -2.179422    0.000016
     25          1           0        1.895054   -2.230369   -0.000104
 ---------------------------------------------------------------------

 SCF Done:  E(RM062X) =  -647.999129062     A.U. after    1 cycles

      1  O    Isotropic =  -457.3716   Anisotropy =  1309.9332

      2  C    Isotropic =   -29.0594   Anisotropy =   191.2286

      3  C    Isotropic =    40.4552   Anisotropy =   190.3170

      4  C    Isotropic =     2.4890   Anisotropy =   228.4314

      5  N    Isotropic =   -94.6402   Anisotropy =   589.0072

      6  C    Isotropic =   -10.2109   Anisotropy =   236.0686

      7  C    Isotropic =   162.0105   Anisotropy =    36.1209

      8  N    Isotropic =   -96.6892   Anisotropy =   532.0799

      9  C    Isotropic =    -6.7122   Anisotropy =   186.2773

     10  C    Isotropic =    26.4231   Anisotropy =   203.8011

     11  C    Isotropic =    32.7575   Anisotropy =   226.0421

     12  C    Isotropic =    35.1531   Anisotropy =   214.2046

     13  C    Isotropic =    29.1968   Anisotropy =   221.5321

     14  C    Isotropic =    35.0945   Anisotropy =   215.5613

     15  C    Isotropic =    32.3926   Anisotropy =   227.6580

     16  H    Isotropic =    20.3660   Anisotropy =     6.1828

     17  H    Isotropic =    21.6690   Anisotropy =     8.0193

     18  H    Isotropic =    28.7558   Anisotropy =     7.4593

     19  H    Isotropic =    28.9653   Anisotropy =     7.2410

     20  H    Isotropic =    28.7557   Anisotropy =     7.4593

     21  H    Isotropic =    21.9328   Anisotropy =     9.2003

     22  H    Isotropic =    23.5531   Anisotropy =     6.6804

     23  H    Isotropic =    23.5970   Anisotropy =     6.3713

     24  H    Isotropic =    23.5698   Anisotropy =     6.4898

     25  H    Isotropic =    21.9066   Anisotropy =     8.9693

 The electronic state is 1-A.
 Alpha  occ. eigenvalues --  -19.63800 -14.76746 -14.76723 -10.64497 -10.63741
 Alpha  occ. eigenvalues --  -10.62489 -10.60847 -10.57112 -10.55967 -10.55689
 Alpha  occ. eigenvalues --  -10.55402 -10.55090 -10.55038 -10.54976 -10.54935
 Alpha  occ. eigenvalues --   -1.17935  -1.11491  -1.01379  -0.97233  -0.92999
 Alpha  occ. eigenvalues --   -0.86064  -0.85158  -0.84133  -0.78031  -0.73416
 Alpha  occ. eigenvalues --   -0.70314  -0.68886  -0.67222  -0.62482  -0.61119
 Alpha  occ. eigenvalues --   -0.57666  -0.55952  -0.54244  -0.53536  -0.52039
 Alpha  occ. eigenvalues --   -0.51750  -0.49980  -0.49527  -0.49305  -0.48136
 Alpha  occ. eigenvalues --   -0.47943  -0.46726  -0.44425  -0.41857  -0.40864
 Alpha  occ. eigenvalues --   -0.40395  -0.38674  -0.36195  -0.34508  -0.32952
 Alpha  occ. eigenvalues --   -0.31555  -0.29946
 Alpha virt. eigenvalues --   -0.06603  -0.02000   0.00769   0.01976   0.05986
 Alpha virt. eigenvalues --    0.07350   0.08312   0.09889   0.10435   0.11583
 Alpha virt. eigenvalues --    0.12132   0.13226   0.13308   0.13669   0.14648

 Mulliken charges:
               1
     1  O   -0.296752
     2  C    0.093805
     3  C   -0.017387
     4  C   -0.065618
     5  N   -0.258621
     6  C    0.205568
     7  C   -0.561019
     8  N   -0.281542
     9  C    0.290347
    10  C    0.065209
    11  C   -0.184589
    12  C   -0.136214
    13  C   -0.132049
    14  C   -0.134613
    15  C   -0.184730
    16  H    0.113240
    17  H    0.179420
    18  H    0.175596
    19  H    0.168794
    20  H    0.175612
    21  H    0.169580
    22  H    0.146618
    23  H    0.147810
    24  H    0.147837
    25  H    0.173698
 Sum of Mulliken charges =  -0.00000

 Dipole moment (field-independent basis, Debye):
    X=              1.2374    Y=              2.6590    Z=             -0.0006  Tot=              2.9328
 Quadrupole moment (field-independent basis, Debye-Ang):
   XX=            -85.7042   YY=            -83.3428   ZZ=            -89.6607
   XY=            -11.8277   XZ=              0.0038   YZ=              0.0015

 Normal termination of Gaussian 16 at Wed Aug 14 20:41:07 2024.
