 Gaussian 16, Revision C.01,

 ----------------------------------------------------------------------
 # B3LYP/6-31G(d,p) symmetry=loose empiricaldispersion=GD3BJ int=(grid=
 ultrafine) opt freq=noraman
 ----------------------------------------------------------------------

 ---------
 pyrz1.xyz
 ---------
 Symbolic Z-matrix:
 Charge =  0 Multiplicity = 1

 SCF Done:  E(RB3LYP) =  -991.147908663     A.U. after   15 cycles
 SCF Done:  E(RB3LYP) =  -991.155425056     A.U. after   13 cycles
 SCF Done:  E(RB3LYP) =  -991.156095469     A.U. after   12 cycles
 SCF Done:  E(RB3LYP) =  -991.156169917     A.U. after   10 cycles
 SCF Done:  E(RB3LYP) =  -991.156173737     A.U. after    9 cycles
 SCF Done:  E(RB3LYP) =  -991.156173790     A.U. after    9 cycles
 SCF Done:  E(RB3LYP) =  -991.156175352     A.U. after    8 cycles
 Optimization completed.
    -- Stationary point found.
 Normal termination of Gaussian 16 at Wed Aug 14 20:30:48 2024.

 ----------------------------------------------------------------------
 #N Geom=AllCheck Guess=TCheck SCRF=Check GenChk RB3LYP/6-31G(d,p) Freq
 ----------------------------------------------------------------------

 Structure from the checkpoint file:  "pyrz1_conf-1.chk"
 ---------
 pyrz1.xyz
 ---------
 Charge =  0 Multiplicity = 1

 SCF Done:  E(RB3LYP) =  -991.156176603     A.U. after    4 cycles

                      1                      2                      3
                     A"                     A"                     A"
 Frequencies --     41.1130                69.6950               124.9154
 Red. masses --      5.5093                 6.1616                 1.3295
 Frc consts  --      0.0055                 0.0176                 0.0122
 IR Inten    --      0.6660                 0.3588                 1.5258

                      4                      5                      6
                     A'                     A"                     A"
 Frequencies --    125.3400               140.1954               150.5226
 Red. masses --      4.8577                 2.3920                 1.0631
 Frc consts  --      0.0450                 0.0277                 0.0142
 IR Inten    --      0.8127                 2.4665                 0.1067

                      7                      8                      9
                     A"                     A'                     A'
 Frequencies --    211.9408               250.3245               292.8290
 Red. masses --      3.9706                 4.8576                 8.1221
 Frc consts  --      0.1051                 0.1793                 0.4103
 IR Inten    --      0.1245                 1.6941                 2.5441

                     10                     11                     12
                     A'                     A"                     A'
 Frequencies --    310.9978               325.4824               394.2842
 Red. masses --      4.3854                 6.0968                 5.4485
 Frc consts  --      0.2499                 0.3805                 0.4990
 IR Inten    --     12.5375                 4.8183                17.1464

                     13                     14                     15
                     A"                     A'                     A'
 Frequencies --    467.3036               486.0186               536.0385
 Red. masses --      7.5377                 8.3073                 5.3703
 Frc consts  --      0.9698                 1.1562                 0.9092
 IR Inten    --     11.8643                 7.7886                 3.1930

                     16                     17                     18
                     A"                     A'                     A'
 Frequencies --    550.4392               593.2209               704.7598
 Red. masses --      4.4200                 7.0721                 8.2442
 Frc consts  --      0.7890                 1.4663                 2.4126
 IR Inten    --      4.1629                14.4095                 2.3169

                     19                     20                     21
                     A"                     A"                     A'
 Frequencies --    743.4317               802.2378               810.3501
 Red. masses --      7.1682                 6.1386                 5.6714
 Frc consts  --      2.3342                 2.3277                 2.1943
 IR Inten    --      3.5731                 6.3698                 5.4919

                     22                     23                     24
                     A'                     A"                     A'
 Frequencies --    951.4108               964.2145              1005.4369
 Red. masses --      6.0977                 1.4481                 2.1197
 Frc consts  --      3.2520                 0.7932                 1.2625
 IR Inten    --     23.6313                 4.2579                 7.5394

                     25                     26                     27
                     A'                     A"                     A'
 Frequencies --   1036.3599              1059.8478              1095.7382
 Red. masses --      3.8685                 1.5463                 5.7351
 Frc consts  --      2.4480                 1.0234                 4.0570
 IR Inten    --     11.5327                 2.6645               174.8064

                     28                     29                     30
                     A"                     A'                     A'
 Frequencies --   1179.1879              1189.4173              1226.9795
 Red. masses --      1.2777                 2.4424                 2.1370
 Frc consts  --      1.0467                 2.0358                 1.8955
 IR Inten    --      0.8694               154.5279               161.0507

                     31                     32                     33
                     A'                     A'                     A'
 Frequencies --   1234.0732              1270.6065              1348.4034
 Red. masses --      2.3730                 7.3280                 3.5280
 Frc consts  --      2.1293                 6.9704                 3.7794
 IR Inten    --     24.9862                27.6696               398.4075

                     34                     35                     36
                     A'                     A'                     A'
 Frequencies --   1403.9125              1425.9272              1445.0325
 Red. masses --      2.4363                 2.0627                 2.2620
 Frc consts  --      2.8292                 2.4710                 2.7829
 IR Inten    --     19.9958                51.2623                 3.4772

                     37                     38                     39
                     A'                     A"                     A"
 Frequencies --   1483.1917              1492.5704              1496.3826
 Red. masses --      1.2391                 1.0433                 1.0463
 Frc consts  --      1.6060                 1.3694                 1.3803
 IR Inten    --     25.6544                 7.4602                 7.2816

                     40                     41                     42
                     A'                     A'                     A'
 Frequencies --   1499.9291              1508.1068              1595.7548
 Red. masses --      1.3227                 1.0676                 6.5900
 Frc consts  --      1.7532                 1.4306                 9.8871
 IR Inten    --      0.7253                 7.6310                44.4342

                     43                     44                     45
                     A'                     A'                     A'
 Frequencies --   1601.5961              1802.0785              3057.1135
 Red. masses --      8.5562                11.6636                 1.0375
 Frc consts  --     12.9311                22.3167                 5.7131
 IR Inten    --      0.7510               204.9122                 5.2166

                     46                     47                     48
                     A'                     A"                     A"
 Frequencies --   3067.1553              3115.7407              3144.7195
 Red. masses --      1.0300                 1.1003                 1.1070
 Frc consts  --      5.7090                 6.2933                 6.4499
 IR Inten    --     33.2371                 6.5913                18.7185

                     49                     50                     51
                     A'                     A'                     A'
 Frequencies --   3168.9177              3182.3777              3223.9084
 Red. masses --      1.1024                 1.1070                 1.0929
 Frc consts  --      6.5223                 6.6055                 6.6924
 IR Inten    --      4.6515                13.9892                 0.9917

 - Thermochemistry -
 -------------------
 Temperature   298.150 Kelvin.  Pressure   1.00000 Atm.
 Atom     1 has atomic number 17 and mass  34.96885

 Molecular mass:   186.01961 amu.
 Principal axes and moments of inertia in atomic units:
                                 1                 2                 3
     Eigenvalues --          828.866123       4343.533488       5149.904255
           X                  -0.610980          0.791646          0.000000
           Y                   0.791646          0.610980          0.000000
           Z                  -0.000000         -0.000000          1.000000
 This molecule is an asymmetric top.
 Rotational symmetry number  1.
 Warning -- assumption of classical behavior for rotation
           may cause significant error
 Rotational temperatures (Kelvin)      0.10450     0.01994     0.01682
 Rotational constants (GHZ):           2.17736     0.41550     0.35044
 Zero-point vibrational energy     361317.3 (Joules/Mol)
                                   86.35690 (Kcal/Mol)
 Warning -- explicit consideration of  17 degrees of freedom as
           vibrations may cause significant error
 Vibrational temperatures:     59.15   100.28   179.73   180.34   201.71
          (Kelvin)            216.57   304.94   360.16   421.32   447.46
                              468.30   567.29   672.35   699.27   771.24
                              791.96   853.51  1013.99  1069.63  1154.24
                             1165.91  1368.87  1387.29  1446.60  1491.09
                             1524.88  1576.52  1696.59  1711.31  1765.35
                             1775.56  1828.12  1940.05  2019.92  2051.59
                             2079.08  2133.98  2147.48  2152.96  2158.06
                             2169.83  2295.94  2304.34  2592.79  4398.50
                             4412.95  4482.86  4524.55  4559.37  4578.73
                             4638.49

 Zero-point correction=                           0.137618 (Hartree/Particle)
 Thermal correction to Energy=                    0.149091
 Thermal correction to Enthalpy=                  0.150036
 Thermal correction to Gibbs Free Energy=         0.098994
 Sum of electronic and zero-point Energies=           -991.018558
 Sum of electronic and thermal Energies=              -991.007085
 Sum of electronic and thermal Enthalpies=            -991.006141
 Sum of electronic and thermal Free Energies=         -991.057182

                     E (Thermal)             CV                S
                      KCal/Mol        Cal/Mol-Kelvin    Cal/Mol-Kelvin
 Total                   93.556             40.478            107.426
 Electronic               0.000              0.000              0.000
 Translational            0.889              2.981             41.568
 Rotational               0.889              2.981             31.295
 Vibrational             91.779             34.517             34.563
 Vibration     1          0.594              1.981              5.205
 Vibration     2          0.598              1.969              4.162
 Vibration     3          0.610              1.928              3.023
 Vibration     4          0.610              1.928              3.016
 Vibration     5          0.615              1.913              2.801
 Vibration     6          0.618              1.902              2.666
 Vibration     7          0.643              1.823              2.027
 Vibration     8          0.663              1.762              1.728
 Vibration     9          0.688              1.687              1.458
 Vibration    10          0.700              1.653              1.357
 Vibration    11          0.710              1.625              1.282
 Vibration    12          0.761              1.482              0.984
 Vibration    13          0.825              1.323              0.745
 Vibration    14          0.842              1.281              0.694
 Vibration    15          0.891              1.170              0.574
 Vibration    16          0.906              1.139              0.543
 Vibration    17          0.951              1.046              0.461

 Optimization completed.
    -- Stationary point found.
 Normal termination of Gaussian 16 at Wed Aug 14 20:31:35 2024.

 ----------------------------------------------------------------------
 # M062X/def2tzvp int=(grid=ultrafine) pop=nbo7 polar prop=efg volume g
 uess=read geom=check
 ----------------------------------------------------------------------

 ---------
 pyrz1.xyz
 ---------
 Structure from the checkpoint file:  "pyrz1_conf-1.chk"
 Charge =  0 Multiplicity = 1

 SCF Done:  E(RM062X) =  -991.106148185     A.U. after   12 cycles

  Exact polarizability:     118.252     -15.588     162.700      -0.000       0.000      67.173
 Approx polarizability:     152.423      -5.173     186.975      -0.000       0.000      92.828

 Summary of Natural Population Analysis:

                                     Natural Population
             Natural    ---------------------------------------------
  Atom No    Charge        Core      Valence    Rydberg      Total
 --------------------------------------------------------------------
   Cl  1    0.01321      9.99998     6.97028    0.01653    16.98679
    C  2    0.17009      1.99999     3.79814    0.03178     5.82991
    C  3    0.16626      1.99999     3.81267    0.02107     5.83374
    C  4   -0.64741      1.99999     4.63684    0.01057     6.64741
    N  5   -0.34408      1.99999     5.31203    0.03206     7.34408
    C  6    0.02906      1.99999     3.94829    0.02265     5.97094
    C  7    0.75731      1.99999     3.20752    0.03518     5.24269
    O  8   -0.46792      2.00000     6.44507    0.02285     8.46792
    C  9   -0.26340      1.99999     4.24871    0.01469     6.26340
    O 10   -0.58942      2.00000     6.56419    0.02523     8.58942
    C 11    0.03988      1.99999     3.93875    0.02138     5.96012
    N 12   -0.38741      1.99999     5.34997    0.03745     7.38741
    H 13    0.23482      0.00000     0.76402    0.00117     0.76518
    H 14    0.24009      0.00000     0.75861    0.00130     0.75991
    H 15    0.23482      0.00000     0.76402    0.00117     0.76518
    H 16    0.19660      0.00000     0.80226    0.00114     0.80340
    H 17    0.19301      0.00000     0.80544    0.00154     0.80699
    H 18    0.19301      0.00000     0.80544    0.00154     0.80699
    H 19    0.23147      0.00000     0.76723    0.00130     0.76853
 ====================================================================
 * Total *  0.00000     31.99990    63.69950    0.30060    96.00000

 Normal termination of Gaussian 16 at Wed Aug 14 20:35:04 2024.
 Gaussian 16:  ES64L-G16RevC.01  3-Jul-2019

 --------------------------------------------------------------------
 # M062X/def2tzvp int=(grid=ultrafine) nmr=giao guess=read geom=check
 --------------------------------------------------------------------

 ---------
 pyrz1.xyz
 ---------
 Structure from the checkpoint file:  "pyrz1_conf-1.chk"
 Charge =  0 Multiplicity = 1

                         Standard orientation:
 ---------------------------------------------------------------------
 Center     Atomic      Atomic             Coordinates (Angstroms)
 Number     Number       Type             X           Y           Z
 ---------------------------------------------------------------------
      1         17           0       -1.717850    3.205206   -0.000000
      2          6           0       -1.042734    1.585214   -0.000000
      3          6           0        0.362453    1.421047    0.000000
      4          6           0        1.321425    2.573481    0.000000
      5          7           0        0.859047    0.183370    0.000000
      6          6           0       -0.000000   -0.845945   -0.000000
      7          6           0        0.519395   -2.250228    0.000000
      8          8           0        1.857362   -2.310867    0.000000
      9          6           0        2.400791   -3.641895    0.000000
     10          8           0       -0.212864   -3.220853   -0.000000
     11          6           0       -1.380942   -0.648154   -0.000000
     12          7           0       -1.900129    0.585366   -0.000000
     13          1           0        1.172427    3.208198    0.879300
     14          1           0        2.340269    2.186105    0.000000
     15          1           0        1.172427    3.208198   -0.879300
     16          1           0        3.482222   -3.514355    0.000000
     17          1           0        2.075040   -4.187701    0.888504
     18          1           0        2.075040   -4.187701   -0.888504
     19          1           0       -2.064715   -1.489754   -0.000000
 ---------------------------------------------------------------------

 SCF Done:  E(RM062X) =  -991.106148185     A.U. after    1 cycles

      1  Cl   Isotropic =   604.7071   Anisotropy =   505.8022

      2  C    Isotropic =     2.7120   Anisotropy =   120.3595

      3  C    Isotropic =     7.9563   Anisotropy =   193.6150

      4  C    Isotropic =   160.2119   Anisotropy =    36.3016

      5  N    Isotropic =  -178.3072   Anisotropy =   665.4290

      6  C    Isotropic =    21.6718   Anisotropy =   175.0641

      7  C    Isotropic =     0.1495   Anisotropy =   104.9652

      8  O    Isotropic =   132.0980   Anisotropy =   178.6567

      9  C    Isotropic =   130.3558   Anisotropy =    71.8425

     10  O    Isotropic =  -141.5403   Anisotropy =   705.7574

     11  C    Isotropic =    17.5730   Anisotropy =   194.9944

     12  N    Isotropic =  -157.5203   Anisotropy =   629.4425

     13  H    Isotropic =    29.1346   Anisotropy =     6.0192

     14  H    Isotropic =    29.1059   Anisotropy =     8.7696

     15  H    Isotropic =    29.1346   Anisotropy =     6.0192

     16  H    Isotropic =    28.0452   Anisotropy =     7.2284

     17  H    Isotropic =    27.9312   Anisotropy =     7.9694

     18  H    Isotropic =    27.9312   Anisotropy =     7.9694

     19  H    Isotropic =    21.8363   Anisotropy =     9.1217

 The electronic state is 1-A'.
 Alpha  occ. eigenvalues -- -102.66309 -19.68532 -19.63064 -14.79260 -14.79068
 Alpha  occ. eigenvalues --  -10.69042 -10.66261 -10.62260 -10.61346 -10.60895
 Alpha  occ. eigenvalues --  -10.60016 -10.55249  -9.82565  -7.54755  -7.54259
 Alpha  occ. eigenvalues --   -7.54217  -1.24712  -1.15283  -1.12710  -1.04905
 Alpha  occ. eigenvalues --   -0.97622  -0.90573  -0.84300  -0.82817  -0.76182
 Alpha  occ. eigenvalues --   -0.74118  -0.67035  -0.64244  -0.61744  -0.58395
 Alpha  occ. eigenvalues --   -0.58228  -0.56563  -0.54781  -0.52062  -0.50651
 Alpha  occ. eigenvalues --   -0.49345  -0.48355  -0.47933  -0.47317  -0.44539
 Alpha  occ. eigenvalues --   -0.43556  -0.41771  -0.39708  -0.39022  -0.38852
 Alpha  occ. eigenvalues --   -0.38258  -0.33771  -0.32790
 Alpha virt. eigenvalues --   -0.05124  -0.02658   0.06548   0.06616   0.06809
 Alpha virt. eigenvalues --    0.08034   0.10303   0.11752   0.12612   0.13697
 Alpha virt. eigenvalues --    0.13924   0.14587   0.15295   0.16436   0.17925

 Mulliken charges:
               1
     1  Cl  -0.048779
     2  C    0.108757
     3  C    0.136658
     4  C   -0.491039
     5  N   -0.198571
     6  C    0.071367
     7  C    0.348932
     8  O   -0.238452
     9  C   -0.261779
    10  O   -0.349740
    11  C   -0.054078
    12  N   -0.169650
    13  H    0.168129
    14  H    0.165058
    15  H    0.168129
    16  H    0.150711
    17  H    0.155346
    18  H    0.155346
    19  H    0.183654
 Sum of Mulliken charges =  -0.00000

 Dipole moment (field-independent basis, Debye):
    X=              2.5708    Y=              0.3223    Z=             -0.0000  Tot=              2.5909
 Quadrupole moment (field-independent basis, Debye-Ang):
   XX=            -76.4445   YY=            -72.2376   ZZ=            -74.8367
   XY=             -3.3905   XZ=             -0.0000   YZ=             -0.0000

 Normal termination of Gaussian 16 at Wed Aug 14 20:36:43 2024.
